  MPI-parallelism will be employed.
------------------------------------------------------------
          Invoking FHI-aims ...
          Version 180424
          Compiled on 2018/04/28 at 19:12:01 on host coe.psc.edu.

          When using FHI-aims, please cite the following reference:

          Volker Blum, Ralf Gehrke, Felix Hanke, Paula Havu,
          Ville Havu, Xinguo Ren, Karsten Reuter, and Matthias Scheffler,
          'Ab Initio Molecular Simulations with Numeric Atom-Centered Orbitals',
          Computer Physics Communications 180, 2175-2196 (2009)

          For any questions about FHI-aims, please visit the aimsclub website
          with its forums and wiki. Contributions to both the forums and the
          wiki are warmly encouraged - they are for you, and everyone is welcome there.

------------------------------------------------------------



  Date     :  20200213, Time     :  150223.486
  Time zero on CPU 1             :   0.423290000000000E-01  s.
  Internal wall clock time zero  :           350838143.486  s.

  FHI-aims created a unique identifier for this run for later identification
  aims_uuid : F5E30DD6-4A37-4EAA-AC54-89B1096028F1

  Using       56 parallel tasks.
  Task        0 on host f010 reporting.
  Task        1 on host f010 reporting.
  Task        2 on host f010 reporting.
  Task        3 on host f010 reporting.
  Task        4 on host f010 reporting.
  Task        5 on host f010 reporting.
  Task        6 on host f010 reporting.
  Task        7 on host f010 reporting.
  Task        8 on host f010 reporting.
  Task        9 on host f010 reporting.
  Task       10 on host f010 reporting.
  Task       11 on host f010 reporting.
  Task       12 on host f010 reporting.
  Task       13 on host f010 reporting.
  Task       14 on host f010 reporting.
  Task       15 on host f010 reporting.
  Task       16 on host f010 reporting.
  Task       17 on host f010 reporting.
  Task       18 on host f010 reporting.
  Task       19 on host f010 reporting.
  Task       20 on host f010 reporting.
  Task       21 on host f010 reporting.
  Task       22 on host f010 reporting.
  Task       23 on host f010 reporting.
  Task       24 on host f010 reporting.
  Task       25 on host f010 reporting.
  Task       26 on host f010 reporting.
  Task       27 on host f010 reporting.
  Task       28 on host f010 reporting.
  Task       29 on host f010 reporting.
  Task       30 on host f010 reporting.
  Task       31 on host f010 reporting.
  Task       32 on host f010 reporting.
  Task       33 on host f010 reporting.
  Task       34 on host f010 reporting.
  Task       35 on host f010 reporting.
  Task       36 on host f010 reporting.
  Task       37 on host f010 reporting.
  Task       38 on host f010 reporting.
  Task       39 on host f010 reporting.
  Task       40 on host f010 reporting.
  Task       41 on host f010 reporting.
  Task       42 on host f010 reporting.
  Task       43 on host f010 reporting.
  Task       44 on host f010 reporting.
  Task       45 on host f010 reporting.
  Task       46 on host f010 reporting.
  Task       47 on host f010 reporting.
  Task       48 on host f010 reporting.
  Task       49 on host f010 reporting.
  Task       50 on host f010 reporting.
  Task       51 on host f010 reporting.
  Task       52 on host f010 reporting.
  Task       53 on host f010 reporting.
  Task       54 on host f010 reporting.
  Task       55 on host f010 reporting.

  Performing system and environment tests:
  *** Environment variable OMP_NUM_THREADS is not set
  *** For performance reasons you might want to set it to 1
  | Stacksize not measured: no C compiler
  | Checking for scalapack...
  | Testing pdtran()...
  | All pdtran() tests passed.

  Obtaining array dimensions for all initial allocations:
  
  -----------------------------------------------------------------------
  Parsing control.in (first pass over file, find array dimensions only).
  The contents of control.in will be repeated verbatim below
  unless switched off by setting 'verbatim_writeout .false.' .
  in the first line of control.in .
  -----------------------------------------------------------------------
  
  #===============================================================================
  # FHI-aims file: ./control.in
  # Created using the Atomic Simulation Environment (ASE)
  # Tue Feb 11 11:38:03 2020
  #===============================================================================
  xc                                 pbe
  spin                               none
  relativistic                       atomic_zora scalar
  charge                             0
  occupation_type                    gaussian 0.01
  mixer                              pulay
  n_max_pulay                        8
  charge_mix_param                   0.02
  sc_accuracy_rho                    0.0001
  sc_accuracy_eev                    0.01
  sc_accuracy_etot                   1e-06
  sc_iter_limit                      10000
  KS_method                          parallel
  empty_states                       6
  basis_threshold                    1e-05
  k_grid                             4 4 1
  vdw_correction_hirshfeld
  use_dipole_correction              .true.
  #===============================================================================
  
  ################################################################################
  #
  #  FHI-aims code project
  #  VB, Fritz-Haber Institut, 2009
  #
  #  Suggested "light" defaults for H atom (to be pasted into control.in file)
  #  Be sure to double-check any results obtained with these settings for post-processing,
  #  e.g., with the "tight" defaults and larger basis sets.
  #
  ################################################################################
    species        H
  #     global species definitions
      nucleus             1
      mass                1.00794
  #
      l_hartree           4
  #
      cut_pot             3.5  1.5  1.0
      basis_dep_cutoff    1e-4
  #
      radial_base         24 5.0
      radial_multiplier   1
      angular_grids       specified
        division   0.2421   50
        division   0.3822  110
        division   0.4799  194
        division   0.5341  302
  #      division   0.5626  434
  #      division   0.5922  590
  #      division   0.6542  770
  #      division   0.6868 1202
  #      outer_grid  770
        outer_grid  302
  ################################################################################
  #
  #  Definition of "minimal" basis
  #
  ################################################################################
  #     valence basis states
      valence      1  s   1.
  #     ion occupancy
      ion_occ      1  s   0.5
  ################################################################################
  #
  #  Suggested additional basis functions. For production calculations,
  #  uncomment them one after another (the most important basis functions are
  #  listed first).
  #
  #  Basis constructed for dimers: 0.5 A, 0.7 A, 1.0 A, 1.5 A, 2.5 A
  #
  ################################################################################
  #  "First tier" - improvements: -1014.90 meV to -62.69 meV
       hydro 2 s 2.1
       hydro 2 p 3.5
  #  "Second tier" - improvements: -12.89 meV to -1.83 meV
  #     hydro 1 s 0.85
  #     hydro 2 p 3.7
  #     hydro 2 s 1.2
  #     hydro 3 d 7
  #  "Third tier" - improvements: -0.25 meV to -0.12 meV
  #     hydro 4 f 11.2
  #     hydro 3 p 4.8
  #     hydro 4 d 9
  #     hydro 3 s 3.2
  ################################################################################
  #
  #  FHI-aims code project
  #  VB, Fritz-Haber Institut, 2009
  #
  #  Suggested "light" defaults for C atom (to be pasted into control.in file)
  #  Be sure to double-check any results obtained with these settings for post-processing,
  #  e.g., with the "tight" defaults and larger basis sets.
  #
  ################################################################################
    species        C
  #     global species definitions
      nucleus             6
      mass                12.0107
  #
      l_hartree           4
  #
      cut_pot             3.5  1.5  1.0
      basis_dep_cutoff    1e-4
  #
      radial_base         34 5.0
      radial_multiplier   1
      angular_grids specified
        division   0.3326   50
        division   0.5710  110
        division   0.7727  194
        division   0.8772  302
  #      division   0.9334  434
  #      division   0.9625  590
  #      division   0.9924  770
  #      division   1.0230  974
  #      division   1.4589 1202
  #     outer_grid  974
       outer_grid 302
  ################################################################################
  #
  #  Definition of "minimal" basis
  #
  ################################################################################
  #     valence basis states
      valence      2  s   2.
      valence      2  p   2.
  #     ion occupancy
      ion_occ      2  s   1.
      ion_occ      2  p   1.
  ################################################################################
  #
  #  Suggested additional basis functions. For production calculations,
  #  uncomment them one after another (the most important basis functions are
  #  listed first).
  #
  #  Constructed for dimers: 1.0 A, 1.25 A, 1.5 A, 2.0 A, 3.0 A
  #
  ################################################################################
  #  "First tier" - improvements: -1214.57 meV to -155.61 meV
       hydro 2 p 1.7
       hydro 3 d 6
       hydro 2 s 4.9
  #  "Second tier" - improvements: -67.75 meV to -5.23 meV
  #     hydro 4 f 9.8
  #     hydro 3 p 5.2
  #     hydro 3 s 4.3
  #     hydro 5 g 14.4
  #     hydro 3 d 6.2
  #  "Third tier" - improvements: -2.43 meV to -0.60 meV
  #     hydro 2 p 5.6
  #     hydro 2 s 1.4
  #     hydro 3 d 4.9
  #     hydro 4 f 11.2
  #  "Fourth tier" - improvements: -0.39 meV to -0.18 meV
  #     hydro 2 p 2.1
  #     hydro 5 g 16.4
  #     hydro 4 d 13.2
  #     hydro 3 s 13.6
  #     hydro 4 f 17.6
  #  Further basis functions - improvements: -0.08 meV and below
  #     hydro 3 s 2
  #     hydro 3 p 6
  #     hydro 4 d 20
  ################################################################################
  #
  #  FHI-aims code project
  #  VB, Fritz-Haber Institut, 2009
  #
  #  Suggested "light" defaults for N atom (to be pasted into control.in file)
  #  Be sure to double-check any results obtained with these settings for post-processing,
  #  e.g., with the "tight" defaults and larger basis sets.
  #
  ################################################################################
    species        N
  #     global species definitions
      nucleus             7
      mass                14.0067
  #
      l_hartree           4
  #
      cut_pot             3.5  1.5  1.0
      basis_dep_cutoff    1e-4
  #
      radial_base         35 5.0
      radial_multiplier   1
      angular_grids       specified
        division   0.2599   50
        division   0.4601  110
        division   0.5885  194
        division   0.6503  302
  #      division   0.6939  434
  #      division   0.7396  590
  #      division   0.7632  770
  #      division   0.8122  974
  #      division   1.1604 1202
  #      outer_grid  974
        outer_grid  302
  ################################################################################
  #
  #  Definition of "minimal" basis
  #
  ################################################################################
  #     valence basis states
      valence      2  s   2.
      valence      2  p   3.
  #     ion occupancy
      ion_occ      2  s   1.
      ion_occ      2  p   2.
  ################################################################################
  #
  #  Suggested additional basis functions. For production calculations,
  #  uncomment them one after another (the most important basis functions are
  #  listed first).
  #
  #  Constructed for dimers: 1.0 A, 1.1 A, 1.5 A, 2.0 A, 3.0 A
  #
  ################################################################################
  #  "First tier" - improvements: -1193.42 meV to -220.60 meV
       hydro 2 p 1.8
       hydro 3 d 6.8
       hydro 3 s 5.8
  #  "Second tier" - improvements: -80.21 meV to -6.86 meV
  #     hydro 4 f 10.8
  #     hydro 3 p 5.8
  #     hydro 1 s 0.8
  #     hydro 5 g 16
  #     hydro 3 d 4.9
  #  "Third tier" - improvements: -4.29 meV to -0.53 meV
  #     hydro 3 s 16
  #     ionic 2 p auto
  #     hydro 3 d 6.6
  #     hydro 4 f 11.6
  #  "Fourth tier" - improvements: -0.75 meV to -0.25 meV
  #     hydro 2 p 4.5
  #     hydro 2 s 2.4
  #     hydro 5 g 14.4
  #     hydro 4 d 14.4
  #     hydro 4 f 16.8
  # Further basis functions - -0.21 meV and below
  #     hydro 3 p 14.8
  #     hydro 3 s 4.4
  #     hydro 3 d 19.6
  #     hydro 5 g 12.8
  ################################################################################
  #
  #  FHI-aims code project
  #  VB, Fritz-Haber Institut, 2009
  #
  #  Suggested "light" defaults for O atom (to be pasted into control.in file)
  #  Be sure to double-check any results obtained with these settings for post-processing,
  #  e.g., with the "tight" defaults and larger basis sets.
  #
  ################################################################################
    species        O
  #     global species definitions
      nucleus             8
      mass                15.9994
  #
      l_hartree           4
  #
      cut_pot             3.5  1.5  1.0
      basis_dep_cutoff    1e-4
  #
      radial_base         36 5.0
      radial_multiplier   1
       angular_grids specified
        division   0.2659   50
        division   0.4451  110
        division   0.6052  194
        division   0.7543  302
  #      division   0.8014  434
  #      division   0.8507  590
  #      division   0.8762  770
  #      division   0.9023  974
  #      division   1.2339 1202
  #      outer_grid 974
        outer_grid 302
  ################################################################################
  #
  #  Definition of "minimal" basis
  #
  ################################################################################
  #     valence basis states
      valence      2  s   2.
      valence      2  p   4.
  #     ion occupancy
      ion_occ      2  s   1.
      ion_occ      2  p   3.
  ################################################################################
  #
  #  Suggested additional basis functions. For production calculations,
  #  uncomment them one after another (the most important basis functions are
  #  listed first).
  #
  #  Constructed for dimers: 1.0 A, 1.208 A, 1.5 A, 2.0 A, 3.0 A
  #
  ################################################################################
  #  "First tier" - improvements: -699.05 meV to -159.38 meV
       hydro 2 p 1.8
       hydro 3 d 7.6
       hydro 3 s 6.4
  #  "Second tier" - improvements: -49.91 meV to -5.39 meV
  #     hydro 4 f 11.6
  #     hydro 3 p 6.2
  #     hydro 3 d 5.6
  #     hydro 5 g 17.6
  #     hydro 1 s 0.75
  #  "Third tier" - improvements: -2.83 meV to -0.50 meV
  #     ionic 2 p auto
  #     hydro 4 f 10.8
  #     hydro 4 d 4.7
  #     hydro 2 s 6.8
  #  "Fourth tier" - improvements: -0.40 meV to -0.12 meV
  #     hydro 3 p 5
  #     hydro 3 s 3.3
  #     hydro 5 g 15.6
  #     hydro 4 f 17.6
  #     hydro 4 d 14
  # Further basis functions - -0.08 meV and below
  #     hydro 3 s 2.1
  #     hydro 4 d 11.6
  #     hydro 3 p 16
  #     hydro 2 s 17.2
  
  -----------------------------------------------------------------------
  Completed first pass over input file control.in .
  -----------------------------------------------------------------------
  
  
  -----------------------------------------------------------------------
  Parsing geometry.in (first pass over file, find array dimensions only).
  The contents of geometry.in will be repeated verbatim below
  unless switched off by setting 'verbatim_writeout .false.' .
  in the first line of geometry.in .
  -----------------------------------------------------------------------
  
  #=======================================================
  # FHI-aims file: ./geometry.in
  # Created using the Atomic Simulation Environment (ASE)
  # Tue Feb 11 11:38:03 2020
  #=======================================================
  lattice_vector 6.5957600000000003 0.0000000000000000 0.0000000000000000
  lattice_vector -1.5450440000000001 7.2328489999999999 0.0000000000000000
  lattice_vector 0.0000000000000000 0.0000000000000000 124.0339850000000013
  atom_frac 0.7022389999999999 0.7714430000000000 0.3422560000000000 H
  atom_frac 0.8527860000000000 0.7481320000000000 0.3867930000000000 H
  atom_frac 0.3500430000000000 0.2473650000000000 0.3466330000000000 H
  atom_frac 0.7536680000000000 0.3937020000000000 0.3269020000000000 H
  atom_frac 0.7996330000000000 0.1252500000000000 0.3714070000000000 H
  atom_frac 0.2988840000000000 0.6252560000000000 0.3619870000000000 H
  atom_frac 0.5320430000000000 0.8299350000000000 0.3323500000000000 H
  atom_frac 0.0220780000000000 0.6893629999999999 0.3768540000000000 H
  atom_frac 0.5204460000000000 0.1889920000000000 0.3565070000000000 H
  atom_frac 0.8566390000000000 0.5554530000000000 0.3372780000000000 H
  atom_frac 0.6981000000000001 0.9643940000000000 0.3818640000000000 H
  atom_frac 0.1956740000000000 0.4633950000000000 0.3516270000000000 H
  atom_frac 0.2063670000000000 0.2733600000000000 0.3909920000000000 H
  atom_frac 0.2593690000000000 0.8961910000000000 0.4063620000000000 H
  atom_frac 0.0370650000000000 0.3321490000000000 0.4009310000000000 H
  atom_frac 0.3610330000000000 0.0570980000000000 0.3959210000000000 H
  atom_frac 0.7090190000000000 0.7739360000000000 0.4311350000000000 H
  atom_frac 0.8595670000000000 0.7506260000000000 0.4756720000000000 H
  atom_frac 0.3568230000000001 0.2498590000000000 0.4355130000000000 H
  atom_frac 0.7604480000000000 0.3961950000000000 0.4157820000000000 H
  atom_frac 0.8064130000000000 0.1277440000000000 0.4602860000000000 H
  atom_frac 0.3056640000000000 0.6277500000000000 0.4508670000000000 H
  atom_frac 0.5388230000000001 0.8324279999999999 0.4212290000000000 H
  atom_frac 0.0288580000000000 0.6918570000000001 0.4657340000000000 H
  atom_frac 0.5272260000000000 0.1914860000000000 0.4453870000000000 H
  atom_frac 0.8634190000000002 0.5579470000000000 0.4261580000000000 H
  atom_frac 0.7048810000000000 0.9668869999999999 0.4707440000000000 H
  atom_frac 0.2024540000000000 0.4658890000000000 0.4405060000000000 H
  atom_frac 0.2131470000000000 0.2758540000000000 0.4798720000000000 H
  atom_frac 0.2661490000000000 0.8986850000000000 0.4952410000000000 H
  atom_frac 0.0438450000000000 0.3346419999999999 0.4898100000000000 H
  atom_frac 0.3678130000000000 0.0595920000000000 0.4848000000000000 H
  atom_frac 0.7158010000000001 0.7764300000000000 0.5200310000000000 H
  atom_frac 0.8663480000000000 0.7531200000000000 0.5645680000000000 H
  atom_frac 0.3636040000000000 0.2523530000000000 0.5244090000000000 H
  atom_frac 0.7672289999999999 0.3986900000000000 0.5046770000000000 H
  atom_frac 0.8131939999999999 0.1302380000000000 0.5491819999999999 H
  atom_frac 0.3124460000000000 0.6302440000000000 0.5397620000000000 H
  atom_frac 0.5456050000000000 0.8349220000000001 0.5101250000000001 H
  atom_frac 0.0356400000000000 0.6943510000000001 0.5546300000000000 H
  atom_frac 0.5340080000000000 0.1939800000000000 0.5342820000000000 H
  atom_frac 0.8702010000000000 0.5604410000000000 0.5150540000000000 H
  atom_frac 0.7116620000000000 0.9693820000000000 0.5596390000000000 H
  atom_frac 0.2092350000000000 0.4683830000000000 0.5294020000000000 H
  atom_frac 0.2199280000000000 0.2783480000000000 0.5687670000000000 H
  atom_frac 0.2729310000000000 0.9011790000000000 0.5841370000000000 H
  atom_frac 0.0506270000000000 0.3371370000000000 0.5787060000000001 H
  atom_frac 0.3745940000000000 0.0620860000000000 0.5736960000000000 H
  atom_frac 0.7225810000000000 0.7789239999999999 0.6089110000000000 H
  atom_frac 0.8731279999999999 0.7556140000000000 0.6534480000000000 H
  atom_frac 0.3703850000000000 0.2548470000000000 0.6132880000000001 H
  atom_frac 0.7740089999999998 0.4011830000000000 0.5935570000000000 H
  atom_frac 0.8199740000000000 0.1327320000000000 0.6380620000000000 H
  atom_frac 0.3192260000000000 0.6327380000000000 0.6286420000000000 H
  atom_frac 0.5523850000000000 0.8374160000000000 0.5990050000000000 H
  atom_frac 0.0424200000000000 0.6968450000000000 0.6435090000000000 H
  atom_frac 0.5407880000000000 0.1964740000000000 0.6231620000000000 H
  atom_frac 0.8769810000000000 0.5629340000000000 0.6039330000000001 H
  atom_frac 0.7184420000000000 0.9718750000000000 0.6485190000000000 H
  atom_frac 0.2160160000000000 0.4708770000000000 0.6182820000000000 H
  atom_frac 0.2267090000000000 0.2808410000000000 0.6576470000000000 H
  atom_frac 0.2797110000000000 0.9036729999999999 0.6730170000000000 H
  atom_frac 0.0574070000000000 0.3396300000000000 0.6675850000000000 H
  atom_frac 0.3813740000000000 0.0645800000000000 0.6625760000000001 H
  atom_frac 0.5509510000000000 0.7262130000000000 0.3383490000000000 C
  atom_frac 0.0037260000000000 0.7933220000000000 0.3828530000000000 C
  atom_frac 0.5014080000000000 0.2926240000000000 0.3505080000000000 C
  atom_frac 0.7207060000000000 0.4534080000000000 0.3346200000000000 C
  atom_frac 0.8337010000000000 0.0661570000000000 0.3791240000000000 C
  atom_frac 0.3316750000000001 0.5654600000000000 0.3542700000000000 C
  atom_frac 0.0554070000000000 0.2281800000000000 0.3949320000000000 C
  atom_frac 0.2253910000000000 0.9553350000000000 0.3986450000000000 C
  atom_frac 0.5577309999999999 0.7287069999999999 0.4272280000000000 C
  atom_frac 0.0105060000000000 0.7958150000000001 0.4717330000000000 C
  atom_frac 0.5081890000000000 0.2951180000000000 0.4393880000000000 C
  atom_frac 0.7274870000000000 0.4559020000000000 0.4234990000000000 C
  atom_frac 0.8404820000000000 0.0686510000000000 0.4680040000000000 C
  atom_frac 0.3384560000000000 0.5679530000000000 0.4431490000000000 C
  atom_frac 0.0621870000000000 0.2306740000000000 0.4838110000000000 C
  atom_frac 0.2321710000000000 0.9578280000000000 0.4875240000000000 C
  atom_frac 0.5645120000000000 0.7312010000000001 0.5161240000000000 C
  atom_frac 0.0172870000000000 0.7983090000000000 0.5606280000000000 C
  atom_frac 0.5149700000000000 0.2976120000000000 0.5282840000000000 C
  atom_frac 0.7342680000000000 0.4583960000000000 0.5123950000000000 C
  atom_frac 0.8472630000000000 0.0711450000000000 0.5568990000000000 C
  atom_frac 0.3452370000000000 0.5704470000000000 0.5320450000000000 C
  atom_frac 0.0689690000000000 0.2331680000000000 0.5727070000000000 C
  atom_frac 0.2389520000000000 0.9603220000000000 0.5764200000000000 C
  atom_frac 0.5712930000000001 0.7336940000000000 0.6050030000000001 C
  atom_frac 0.0240680000000000 0.8008029999999999 0.6495080000000000 C
  atom_frac 0.5217500000000000 0.3001060000000000 0.6171630000000000 C
  atom_frac 0.7410480000000000 0.4608900000000000 0.6012740000000000 C
  atom_frac 0.8540430000000000 0.0736380000000000 0.6457790000000000 C
  atom_frac 0.3520170000000000 0.5729410000000000 0.6209240000000000 C
  atom_frac 0.0757490000000000 0.2356620000000000 0.6615870000000000 C
  atom_frac 0.2457320000000000 0.9628160000000000 0.6652990000000000 C
  atom_frac 0.5517919999999999 0.5474640000000000 0.3333870000000000 N
  atom_frac 0.0022650000000000 0.9717810000000000 0.3778600000000000 N
  atom_frac 0.5006380000000000 0.4714240000000000 0.3554860000000000 N
  atom_frac 0.3843390000000000 0.7166630000000000 0.3461960000000000 N
  atom_frac 0.6679210000000000 0.3021040000000000 0.3426770000000000 N
  atom_frac 0.8879120000000000 0.2181420000000000 0.3871330000000000 N
  atom_frac 0.3940510000000000 0.4732210000000000 0.3261560000000000 N
  atom_frac 0.1594910000000000 0.0459580000000000 0.3705960000000000 N
  atom_frac 0.6583700000000000 0.5456370000000000 0.3627170000000000 N
  atom_frac 0.2267700000000000 0.8074270000000000 0.3438450000000000 N
  atom_frac 0.3281990000000000 0.7120240000000000 0.3882680000000000 N
  atom_frac 0.8255100000000000 0.2113600000000000 0.3450280000000000 N
  atom_frac 0.0568280000000000 0.0497110000000000 0.3999250000000000 N
  atom_frac 0.1712500000000000 0.8034000000000000 0.3906350000000000 N
  atom_frac 0.8995710000000000 0.9755239999999999 0.4071730000000000 N
  atom_frac 0.7309430000000000 0.3095080000000000 0.3895000000000000 N
  atom_frac 0.5585730000000000 0.5499570000000000 0.4222670000000000 N
  atom_frac 0.0090450000000000 0.9742749999999999 0.4667390000000000 N
  atom_frac 0.5074180000000000 0.4739170000000000 0.4443650000000000 N
  atom_frac 0.3911200000000000 0.7191570000000000 0.4350750000000000 N
  atom_frac 0.6747010000000000 0.3045980000000000 0.4315570000000000 N
  atom_frac 0.8946930000000000 0.2206350000000000 0.4760130000000000 N
  atom_frac 0.4008310000000000 0.4757150000000000 0.4150360000000000 N
  atom_frac 0.1662710000000000 0.0484510000000000 0.4594760000000000 N
  atom_frac 0.6651500000000000 0.5481300000000000 0.4515960000000000 N
  atom_frac 0.2335500000000000 0.8099210000000000 0.4327240000000000 N
  atom_frac 0.3349790000000000 0.7145170000000000 0.4771480000000000 N
  atom_frac 0.8322909999999999 0.2138540000000000 0.4339080000000000 N
  atom_frac 0.0636080000000000 0.0522040000000000 0.4888050000000000 N
  atom_frac 0.1780300000000000 0.8058940000000000 0.4795150000000000 N
  atom_frac 0.9063510000000000 0.9780180000000001 0.4960519999999999 N
  atom_frac 0.7377230000000000 0.3120020000000000 0.4783800000000000 N
  atom_frac 0.5653540000000000 0.5524520000000001 0.5111630000000000 N
  atom_frac 0.0158270000000000 0.9767690000000001 0.5556350000000000 N
  atom_frac 0.5142000000000000 0.4764120000000000 0.5332610000000000 N
  atom_frac 0.3979009999999999 0.7216510000000000 0.5239710000000000 N
  atom_frac 0.6814829999999999 0.3070920000000000 0.5204530000000001 N
  atom_frac 0.9014740000000000 0.2231290000000000 0.5649090000000000 N
  atom_frac 0.4076120000000000 0.4782090000000000 0.5039320000000000 N
  atom_frac 0.1730520000000000 0.0509450000000000 0.5483710000000001 N
  atom_frac 0.6719309999999999 0.5506240000000000 0.5404920000000000 N
  atom_frac 0.2403320000000000 0.8124150000000000 0.5216200000000000 N
  atom_frac 0.3417610000000000 0.7170110000000000 0.5660440000000000 N
  atom_frac 0.8390720000000000 0.2163480000000000 0.5228040000000000 N
  atom_frac 0.0703900000000000 0.0546980000000000 0.5777010000000000 N
  atom_frac 0.1848110000000000 0.8083880000000000 0.5684110000000000 N
  atom_frac 0.9131330000000000 0.9805120000000001 0.5849480000000000 N
  atom_frac 0.7445050000000000 0.3144960000000000 0.5672759999999999 N
  atom_frac 0.5721340000000000 0.5549450000000000 0.6000420000000000 N
  atom_frac 0.0226070000000000 0.9792630000000000 0.6445140000000000 N
  atom_frac 0.5209800000000000 0.4789050000000000 0.6221400000000001 N
  atom_frac 0.4046810000000000 0.7241450000000000 0.6128500000000000 N
  atom_frac 0.6882630000000001 0.3095859999999999 0.6093320000000000 N
  atom_frac 0.9082540000000000 0.2256230000000000 0.6537880000000000 N
  atom_frac 0.4143930000000000 0.4807020000000000 0.5928110000000000 N
  atom_frac 0.1798330000000000 0.0534390000000000 0.6372510000000000 N
  atom_frac 0.6787119999999999 0.5531180000000000 0.6293710000000000 N
  atom_frac 0.2471120000000000 0.8149090000000000 0.6105000000000000 N
  atom_frac 0.3485410000000000 0.7195050000000000 0.6549230000000000 N
  atom_frac 0.8458520000000000 0.2188420000000000 0.6116830000000000 N
  atom_frac 0.0771700000000000 0.0571920000000000 0.6665800000000000 N
  atom_frac 0.1915910000000000 0.8108810000000000 0.6572900000000000 N
  atom_frac 0.9199130000000000 0.9830050000000000 0.6738270000000000 N
  atom_frac 0.7512850000000000 0.3169900000000000 0.6561550000000000 N
  atom_frac 0.2624250000000000 0.5663610000000000 0.3243730000000000 O
  atom_frac 0.2913050000000000 0.9530080000000000 0.3688130000000000 O
  atom_frac 0.7899850000000000 0.4524860000000000 0.3644840000000000 O
  atom_frac 0.3972810000000001 0.3194280000000000 0.3224920000000000 O
  atom_frac 0.1556400000000000 0.1995140000000000 0.3669160000000000 O
  atom_frac 0.6551709999999999 0.6994300000000000 0.3663970000000000 O
  atom_frac 0.2624230000000000 0.9362940000000000 0.3373270000000000 O
  atom_frac 0.2914860000000000 0.5826020000000000 0.3817990000000000 O
  atom_frac 0.7898060000000000 0.0824430000000000 0.3515300000000000 O
  atom_frac 0.0621050000000000 0.7541490000000000 0.3488870000000000 O
  atom_frac 0.9902069999999999 0.2646690000000000 0.3400020000000000 O
  atom_frac 0.5656930000000000 0.2561780000000000 0.3845229999999999 O
  atom_frac 0.7677570000000000 0.0684840000000000 0.4089560000000000 O
  atom_frac 0.9033620000000000 0.8219470000000000 0.4108530000000000 O
  atom_frac 0.7676780000000000 0.4389400000000000 0.3959860000000000 O
  atom_frac 0.4934390000000000 0.7653329999999999 0.3932460000000000 O
  atom_frac 0.2692050000000000 0.5688540000000000 0.4132520000000000 O
  atom_frac 0.2980850000000000 0.9555010000000000 0.4576920000000000 O
  atom_frac 0.7967649999999999 0.4549800000000000 0.4533630000000000 O
  atom_frac 0.4040610000000000 0.3219220000000000 0.4113720000000000 O
  atom_frac 0.1624200000000000 0.2020080000000000 0.4557950000000000 O
  atom_frac 0.6619510000000000 0.7019240000000000 0.4552770000000000 O
  atom_frac 0.2692030000000000 0.9387880000000000 0.4262070000000000 O
  atom_frac 0.2982660000000000 0.5850959999999999 0.4706790000000000 O
  atom_frac 0.7965869999999999 0.0849360000000000 0.4404090000000000 O
  atom_frac 0.0688850000000000 0.7566420000000000 0.4377670000000000 O
  atom_frac 0.9969870000000001 0.2671630000000000 0.4288820000000000 O
  atom_frac 0.5724730000000000 0.2586720000000000 0.4734030000000000 O
  atom_frac 0.7745370000000000 0.0709780000000000 0.4978360000000000 O
  atom_frac 0.9101420000000001 0.8244410000000000 0.4997320000000000 O
  atom_frac 0.7744579999999999 0.4414340000000000 0.4848650000000000 O
  atom_frac 0.5002190000000000 0.7678270000000001 0.4821250000000000 O
  atom_frac 0.2759860000000000 0.5713490000000000 0.5021480000000000 O
  atom_frac 0.3048660000000000 0.9579950000000000 0.5465880000000000 O
  atom_frac 0.8035460000000000 0.4574740000000000 0.5422590000000000 O
  atom_frac 0.4108430000000000 0.3244160000000000 0.5002680000000000 O
  atom_frac 0.1692020000000000 0.2045020000000000 0.5446910000000000 O
  atom_frac 0.6687320000000001 0.7044180000000000 0.5441720000000000 O
  atom_frac 0.2759850000000000 0.9412820000000000 0.5151019999999999 O
  atom_frac 0.3050470000000000 0.5875899999999999 0.5595750000000000 O
  atom_frac 0.8033680000000000 0.0874310000000000 0.5293050000000000 O
  atom_frac 0.0756660000000000 0.7591360000000000 0.5266620000000000 O
  atom_frac 0.0037690000000000 0.2696570000000000 0.5177780000000000 O
  atom_frac 0.5792550000000000 0.2611660000000000 0.5622980000000000 O
  atom_frac 0.7813190000000000 0.0734720000000000 0.5867310000000000 O
  atom_frac 0.9169230000000000 0.8269350000000000 0.5886280000000000 O
  atom_frac 0.7812390000000000 0.4439280000000000 0.5737610000000000 O
  atom_frac 0.5070000000000000 0.7703210000000000 0.5710210000000000 O
  atom_frac 0.2827660000000000 0.5738420000000000 0.5910280000000000 O
  atom_frac 0.3116470000000000 0.9604890000000000 0.6354680000000000 O
  atom_frac 0.8103260000000000 0.4599680000000000 0.6311390000000000 O
  atom_frac 0.4176230000000000 0.3269090000000000 0.5891470000000000 O
  atom_frac 0.1759820000000000 0.2069960000000000 0.6335710000000000 O
  atom_frac 0.6755120000000000 0.7069110000000000 0.6330519999999999 O
  atom_frac 0.2827650000000000 0.9437759999999999 0.6039820000000000 O
  atom_frac 0.3118270000000000 0.5900830000000000 0.6484540000000000 O
  atom_frac 0.8101480000000000 0.0899240000000000 0.6181840000000000 O
  atom_frac 0.0824470000000000 0.7616300000000000 0.6155420000000000 O
  atom_frac 0.0105490000000000 0.2721510000000000 0.6066570000000000 O
  atom_frac 0.5860350000000000 0.2636600000000000 0.6511780000000000 O
  atom_frac 0.7880990000000000 0.0759650000000000 0.6756110000000000 O
  atom_frac 0.9237040000000000 0.8294290000000000 0.6775080000000000 O
  atom_frac 0.7880190000000000 0.4464210000000000 0.6626400000000001 O
  atom_frac 0.5137800000000000 0.7728150000000000 0.6598999999999999 O
  
  -----------------------------------------------------------------------
  Completed first pass over input file geometry.in .
  -----------------------------------------------------------------------
  

  Basic array size parameters:
  | Number of species                 :        4
  | Number of atoms                   :      224
  | Number of lattice vectors         :        3
  | Max. basis fn. angular momentum   :        2
  | Max. atomic/ionic basis occupied n:        2
  | Max. number of basis fn. types    :        2
  | Max. radial fns per species/type  :        3
  | Max. logarithmic grid size        :     1301
  | Max. radial integration grid size :       36
  | Max. angular integration grid size:      302
  | Max. angular grid division number :        8
  | Radial grid for Hartree potential :     1301
  | Number of spin channels           :        1

------------------------------------------------------------
          Reading file control.in.
------------------------------------------------------------
  XC: Using PBE gradient-corrected functionals.
  Spin treatment: No spin polarisation.
  Scalar relativistic treatment of kinetic energy: on-site free-atom approximation to ZORA.
  Charge =   0.000000E+00: Neutral system requested explicitly.
  Occupation type: Gaussian broadening, width =   0.100000E-01 eV.
  Using pulay charge density mixing.
  Pulay mixing - number of memorized iterations:    8
  Charge density mixing - mixing parameter:     0.0200
  Convergence accuracy of self-consistent charge density:  0.1000E-03
  Convergence accuracy of sum of eigenvalues:  0.1000E-01
  Convergence accuracy of total energy:  0.1000E-05
  Maximum number of s.-c. iterations  : 10000
  Kohn-Sham electronic structure solved by the ELSI library.
  Number of empty states per atom:        6
  Threshold for basis singularities:  0.1000E-04
  Found k-point grid:         4         4         1
  Using dipole correction.
 
  Reading configuration options for species H                   .
  | Found nuclear charge :   1.0000
  | Found atomic mass :    1.00794000000000      amu
  | Found l_max for Hartree potential  :   4
  | Found cutoff potl. onset [A], width [A], scale factor :    3.50000    1.50000    1.00000
  | Threshold for basis-dependent cutoff potential is   0.100000E-03
  | Found data for basic radial integration grid :    24 points, outermost radius =    5.000 A
  | Found multiplier for basic radial grid :   1
  | Found angular grid specification: user-specified.
  | Specified grid contains     5 separate shells.
  | Check grid settings after all constraints further below.
  | Found free-atom valence shell :  1 s   1.000
  | No ionic wave fns used. Skipping ion_occ.
  | Found hydrogenic basis function :  2 s   2.100
  | Found hydrogenic basis function :  2 p   3.500
  Species H                   : Missing cutoff potential type.
  Defaulting to exp(1/x)/(1-x)^2 type cutoff potential.
  Species H : No 'logarithmic' tag. Using default grid for free atom:
  | Default logarithmic grid data [bohr] : 0.1000E-03 0.1000E+03 0.1012E+01
  Species H : On-site basis accuracy parameter (for Gram-Schmidt orthonormalisation) not specified.
  Using default value basis_acc =  0.1000000E-03.
  Species H                   : Using default innermost maximum threshold i_radial=  2 for radial functions.
  Species H                   : Default cutoff onset for free atom density etc. : 0.35000000E+01 AA.
  Species H                   : Basic radial grid will be enhanced according to radial_multiplier =   1, to contain    24 grid points.
 
  Reading configuration options for species C                   .
  | Found nuclear charge :   6.0000
  | Found atomic mass :    12.0107000000000      amu
  | Found l_max for Hartree potential  :   4
  | Found cutoff potl. onset [A], width [A], scale factor :    3.50000    1.50000    1.00000
  | Threshold for basis-dependent cutoff potential is   0.100000E-03
  | Found data for basic radial integration grid :    34 points, outermost radius =    5.000 A
  | Found multiplier for basic radial grid :   1
  | Found angular grid specification: user-specified.
  | Specified grid contains     5 separate shells.
  | Check grid settings after all constraints further below.
  | Found free-atom valence shell :  2 s   2.000
  | Found free-atom valence shell :  2 p   2.000
  | No ionic wave fns used. Skipping ion_occ.
  | No ionic wave fns used. Skipping ion_occ.
  | Found hydrogenic basis function :  2 p   1.700
  | Found hydrogenic basis function :  3 d   6.000
  | Found hydrogenic basis function :  2 s   4.900
  Species C                   : Missing cutoff potential type.
  Defaulting to exp(1/x)/(1-x)^2 type cutoff potential.
  Species C : No 'logarithmic' tag. Using default grid for free atom:
  | Default logarithmic grid data [bohr] : 0.1000E-03 0.1000E+03 0.1012E+01
  Species C : On-site basis accuracy parameter (for Gram-Schmidt orthonormalisation) not specified.
  Using default value basis_acc =  0.1000000E-03.
  Species C                   : Using default innermost maximum threshold i_radial=  2 for radial functions.
  Species C                   : Default cutoff onset for free atom density etc. : 0.35000000E+01 AA.
  Species C                   : Basic radial grid will be enhanced according to radial_multiplier =   1, to contain    34 grid points.
 
  Reading configuration options for species N                   .
  | Found nuclear charge :   7.0000
  | Found atomic mass :    14.0067000000000      amu
  | Found l_max for Hartree potential  :   4
  | Found cutoff potl. onset [A], width [A], scale factor :    3.50000    1.50000    1.00000
  | Threshold for basis-dependent cutoff potential is   0.100000E-03
  | Found data for basic radial integration grid :    35 points, outermost radius =    5.000 A
  | Found multiplier for basic radial grid :   1
  | Found angular grid specification: user-specified.
  | Specified grid contains     5 separate shells.
  | Check grid settings after all constraints further below.
  | Found free-atom valence shell :  2 s   2.000
  | Found free-atom valence shell :  2 p   3.000
  | No ionic wave fns used. Skipping ion_occ.
  | No ionic wave fns used. Skipping ion_occ.
  | Found hydrogenic basis function :  2 p   1.800
  | Found hydrogenic basis function :  3 d   6.800
  | Found hydrogenic basis function :  3 s   5.800
  Species N                   : Missing cutoff potential type.
  Defaulting to exp(1/x)/(1-x)^2 type cutoff potential.
  Species N : No 'logarithmic' tag. Using default grid for free atom:
  | Default logarithmic grid data [bohr] : 0.1000E-03 0.1000E+03 0.1012E+01
  Species N : On-site basis accuracy parameter (for Gram-Schmidt orthonormalisation) not specified.
  Using default value basis_acc =  0.1000000E-03.
  Species N                   : Using default innermost maximum threshold i_radial=  2 for radial functions.
  Species N                   : Default cutoff onset for free atom density etc. : 0.35000000E+01 AA.
  Species N                   : Basic radial grid will be enhanced according to radial_multiplier =   1, to contain    35 grid points.
 
  Reading configuration options for species O                   .
  | Found nuclear charge :   8.0000
  | Found atomic mass :    15.9994000000000      amu
  | Found l_max for Hartree potential  :   4
  | Found cutoff potl. onset [A], width [A], scale factor :    3.50000    1.50000    1.00000
  | Threshold for basis-dependent cutoff potential is   0.100000E-03
  | Found data for basic radial integration grid :    36 points, outermost radius =    5.000 A
  | Found multiplier for basic radial grid :   1
  | Found angular grid specification: user-specified.
  | Specified grid contains     5 separate shells.
  | Check grid settings after all constraints further below.
  | Found free-atom valence shell :  2 s   2.000
  | Found free-atom valence shell :  2 p   4.000
  | No ionic wave fns used. Skipping ion_occ.
  | No ionic wave fns used. Skipping ion_occ.
  | Found hydrogenic basis function :  2 p   1.800
  | Found hydrogenic basis function :  3 d   7.600
  | Found hydrogenic basis function :  3 s   6.400
  Species O                   : Missing cutoff potential type.
  Defaulting to exp(1/x)/(1-x)^2 type cutoff potential.
  Species O : No 'logarithmic' tag. Using default grid for free atom:
  | Default logarithmic grid data [bohr] : 0.1000E-03 0.1000E+03 0.1012E+01
  Species O : On-site basis accuracy parameter (for Gram-Schmidt orthonormalisation) not specified.
  Using default value basis_acc =  0.1000000E-03.
  Species O                   : Using default innermost maximum threshold i_radial=  2 for radial functions.
  Species O                   : Default cutoff onset for free atom density etc. : 0.35000000E+01 AA.
  Species O                   : Basic radial grid will be enhanced according to radial_multiplier =   1, to contain    36 grid points.
 
  Finished reading input file 'control.in'. Consistency checks are next.
 
  MPI_IN_PLACE appears to work with this MPI implementation.
  | Keeping use_mpi_in_place .true. (see manual).
  Target number of points in a grid batch is not set. Defaulting to  100
  Method for grid partitioning is not set. Defaulting to parallel hash+maxmin partitioning.
  Batch size limit is not set. Defaulting to    200
  By default, will store active basis functions for each batch.
  If in need of memory, prune_basis_once .false. can be used to disable this option.
  communication_type for Hartree potential was not specified.
  Defaulting to calc_hartree .
  Pulay mixer: Number of initial linear mixing iterations not set.
  Defaulting to    0 iterations.
  Work space size for distributed Hartree potential not set.
  Defaulting to   0.200000E+03 MB.
  Algorithm-dependent basis array size parameters:
  | n_max_pulay                         :        8
  Presetting      1001 iterations before the initial mixing cycle
  is restarted anyway using the sc_init_iter criterion / keyword.
  Presetting a factor      1.000 between actual scf density residual
  and density convergence criterion sc_accuracy_rho below which sc_init_iter
  takes no effect.
  Calculation of forces was not defined in control.in. No forces will be calculated.
  Geometry relaxation not requested: no relaxation will be performed.
  No accuracy limit for integral partition fn. given. Defaulting to  0.1000E-14.
  No threshold value for u(r) in integrations given. Defaulting to  0.1000E-05.
  No accuracy for occupation numbers given. Defaulting to  0.1000E-12.
  No threshold value for occupation numbers given. Defaulting to  0.0000E+00.
  No accuracy for fermi level given. Defaulting to  0.1000E-19.
  Maximum # of iterations to find E_F not set. Defaulting to  200.
  Maximum number of tasks per SMP nodenot specified.
  Presetting   512 tasks.
  Will not use alltoall communication since running on < 1024 CPUs.
  partition_type (choice of integration weights) for integrals was not specified.
  | Using a version of the partition function of Stratmann and coworkers ('stratmann_smoother').
  | At each grid point, the set of atoms used to build the partition table is smoothly restricted to
  | only those atoms whose free-atom density would be non-zero at that grid point.
  Partitioning for Hartree potential was not defined. Using partition_type for integrals.
  | Adjusted default value of keyword multip_moments_threshold to:       0.10000000E-11
  | This value may affect high angular momentum components of the Hartree potential in periodic systems.
  Angular momentum expansion for Kerker preconditioner not set explicitly.
  | Using default value of   0
  No explicit requirement for turning off preconditioner.
  | By default, it will be turned off when the charge convergence reaches
  | sc_accuracy_rho  =   0.100000E-03
  | sc_accuracy_eev  =   0.100000E-01
  | sc_accuracy_etot =   0.100000E-05
  No special mixing parameter while Kerker preconditioner is on.
  Using default: charge_mix_param =     0.0200.
  No q(lm)/r^(l+1) cutoff set for long-range Hartree potential.
  | Using default value of  0.100000E-09 .
  | Verify using the multipole_threshold keyword.
  Defaulting to new monopole extrapolation.
  Density update method: automatic selection selected.
  Using density matrix based charge density update.
  Using density matrix based charge density update.
  Using packed matrix style: index .
  Defaulting to use time-reversal symmetry for k-point grid.
  Using the following vdw_convergence_threshold for supercell sums
  over the Tkatchenko-Scheffler correction:  0.224000E-05 eV.
------------------------------------------------------------


------------------------------------------------------------
          Reading geometry description geometry.in.
------------------------------------------------------------
  Input structure read successfully.
  The structure contains      224 atoms,  and a total of       1216.000 electrons.

  Input geometry:
  | Unit cell:
  |        6.59576000        0.00000000        0.00000000
  |       -1.54504400        7.23284900        0.00000000
  |        0.00000000        0.00000000      124.03398500
  | Atomic structure:
  |       Atom                x [A]            y [A]            z [A]
  |    1: Species H             3.43988653        5.57973073       42.45137557
  |    2: Species H             4.46887493        5.41112579       47.97547716
  |    3: Species H             1.92660981        1.78915369       42.99427232
  |    4: Species H             4.36272633        2.84758712       40.54695776
  |    5: Species H             5.08067060        0.90591434       46.06709027
  |    6: Species H             1.00531910        4.52238223       44.89869013
  |    7: Species H             2.22694185        6.00279453       41.22269491
  |    8: Species H            -0.91947498        4.98605849       46.74270338
  |    9: Species H             3.14073595        1.36695060       44.21898389
  |   10: Species H             4.79198593        4.01750768       41.83393439
  |   11: Species H             3.11446889        6.97531618       47.36411365
  |   12: Species H             0.57465308        3.35166606       43.61369804
  |   13: Species H             0.93879398        1.97717160       48.49629586
  |   14: Species H             0.32608115        6.48201418       50.40269821
  |   15: Species H            -0.26871298        2.40238356       49.72906964
  |   16: Species H             2.29306810        0.41298121       49.10765938
  |   17: Species H             3.48075399        5.59776222       53.47539212
  |   18: Species H             4.50974744        5.42916451       58.99949371
  |   19: Species H             1.96747572        1.80719242       54.01841291
  |   20: Species H             4.40359379        2.86561861       51.57109835
  |   21: Species H             5.12153651        0.92395306       57.09110682
  |   22: Species H             1.04618501        4.54042096       55.92283071
  |   23: Species H             2.26780930        6.02082603       52.24671147
  |   24: Species H            -0.87860906        5.00409721       57.76684397
  |   25: Species H             3.18160187        1.38498932       55.24312448
  |   26: Species H             4.83285184        4.03554640       52.85807498
  |   27: Species H             3.15534295        6.99334767       58.38825423
  |   28: Species H             0.61551899        3.36970479       54.63771460
  |   29: Species H             0.97965989        1.99521033       59.52043645
  |   30: Species H             0.36694706        6.50005290       61.42671477
  |   31: Species H            -0.22784552        2.42041506       60.75308619
  |   32: Species H             2.33393401        0.43101994       60.13167593
  |   33: Species H             3.52163309        5.61580095       64.50151725
  |   34: Species H             4.55061995        5.44720324       70.02561884
  |   35: Species H             2.00834823        1.82523114       65.04453804
  |   36: Species H             4.44446476        2.88366457       62.59709945
  |   37: Species H             5.16240902        0.94199179       68.11723195
  |   38: Species H             1.08706412        4.55845969       66.94883181
  |   39: Species H             2.30868841        6.03886475       63.27283660
  |   40: Species H            -0.83772996        5.02213594       68.79296910
  |   41: Species H             3.22248097        1.40302805       66.26912557
  |   42: Species H             4.87373094        4.05358513       63.88420011
  |   43: Species H             3.19621391        7.01139363       69.41425533
  |   44: Species H             0.65639150        3.38774351       65.66383973
  |   45: Species H             1.02053240        2.01324905       70.54643755
  |   46: Species H             0.40782617        6.51809163       72.45283990
  |   47: Species H            -0.18696796        2.43846101       71.77921132
  |   48: Species H             2.37480652        0.44905866       71.15780106
  |   49: Species H             3.56249900        5.63383967       75.52565784
  |   50: Species H             4.59148586        5.46524196       81.04975943
  |   51: Species H             2.04922074        1.84326987       76.06855459
  |   52: Species H             4.48533221        2.90169606       73.62124003
  |   53: Species H             5.20327493        0.96003051       79.14137254
  |   54: Species H             1.12793003        4.57649841       77.97297240
  |   55: Species H             2.34955432        6.05690348       74.29697718
  |   56: Species H            -0.79686405        5.04017466       79.81698565
  |   57: Species H             3.26334688        1.42106677       77.29326616
  |   58: Species H             4.91459840        4.07161662       74.90821666
  |   59: Species H             3.23708137        7.02942512       80.43839592
  |   60: Species H             0.69726401        3.40578224       76.68798031
  |   61: Species H             1.06140645        2.03128055       81.57057813
  |   62: Species H             0.44869208        6.53613035       83.47698048
  |   63: Species H            -0.14610050        2.45649251       82.80322788
  |   64: Species H             2.41567243        0.46709739       82.18194165
  |   65: Species C             2.51190953        5.25258897       41.96677479
  |   66: Species C            -1.20114159        5.73797823       47.48678326
  |   67: Species C             2.85504987        2.11650521       43.47490401
  |   68: Species C             4.05306850        3.27943160       41.50425206
  |   69: Species C             5.39667623        0.47850359       47.02426053
  |   70: Species C             1.31398812        4.08988680       43.94151987
  |   71: Species C             0.01290313        1.65039148       48.98498976
  |   72: Species C             0.01059033        6.90979380       49.44552795
  |   73: Species C             2.55277544        5.27062770       52.99079134
  |   74: Species C            -1.16027414        5.75600973       58.51092385
  |   75: Species C             2.89592238        2.13454393       54.49904460
  |   76: Species C             4.09394101        3.29747032       52.52826861
  |   77: Species C             5.43754874        0.49654232       58.04840112
  |   78: Species C             1.35486217        4.10791829       54.96553642
  |   79: Species C             0.05376905        1.66843021       60.00900632
  |   80: Species C             0.05145779        6.92782529       60.46954450
  |   81: Species C             2.59364795        5.28866642       64.01691647
  |   82: Species C            -1.11940163        5.77404845       69.53692494
  |   83: Species C             2.93679489        2.15258266       65.52516973
  |   84: Species C             4.13481351        3.31550905       63.55439374
  |   85: Species C             5.47842125        0.51458104       69.07440221
  |   86: Species C             1.39573468        4.12595701       65.99166155
  |   87: Species C             0.09464815        1.68646894       71.03513145
  |   88: Species C             0.09233030        6.94586402       71.49566963
  |   89: Species C             2.63452201        5.30669791       75.04093303
  |   90: Species C            -1.07852912        5.79208718       80.56106553
  |   91: Species C             2.97766081        2.17062138       76.54918628
  |   92: Species C             4.17567943        3.33354778       74.57841030
  |   93: Species C             5.51928871        0.53261253       80.09854280
  |   94: Species C             1.43660059        4.14399574       77.01567810
  |   95: Species C             0.13551407        1.70450766       82.05927203
  |   96: Species C             0.13319621        6.96390274       82.51968619
  |   97: Species N             2.79363163        3.95972444       41.35131816
  |   98: Species N            -1.48650501        7.02874523       46.86748157
  |   99: Species N             2.57371727        3.40973861       44.09234519
  |  100: Species N             1.42773193        5.18351526       42.94006947
  |  101: Species N             3.93868264        2.18507261       42.50359388
  |  102: Species N             5.51941546        1.57778815       48.01764872
  |  103: Species N             1.86791856        3.42273604       40.45442841
  |  104: Species N             0.98095723        0.33240727       45.96649871
  |  105: Species N             3.49941734        3.94651003       44.98923494
  |  106: Species N             0.24821025        5.83999757       42.64846557
  |  107: Species N             1.06461343        5.14996208       48.15842729
  |  108: Species N             5.11830534        1.52873496       42.79519778
  |  109: Species N             0.29801817        0.35955216       49.60429145
  |  110: Species N            -0.11176445        5.81087089       48.45201573
  |  111: Species N             4.42612692        7.05581779       50.50328977
  |  112: Species N             4.34292112        2.23862463       48.31123716
  |  113: Species N             2.83450569        3.97775594       52.37545874
  |  114: Species N            -1.44563909        7.04678396       57.89149812
  |  115: Species N             2.61458473        3.42777010       55.11636174
  |  116: Species N             1.46860444        5.20155399       53.96408602
  |  117: Species N             3.97954856        2.20311134       53.52773446
  |  118: Species N             5.56028952        1.59581964       59.04178930
  |  119: Species N             1.90878447        3.44077476       51.47856900
  |  120: Species N             1.02182468        0.35043877       56.99063929
  |  121: Species N             3.54028480        3.96454152       56.01325149
  |  122: Species N             0.28907617        5.85803629       53.67248213
  |  123: Species N             1.10548089        5.16799357       59.18256787
  |  124: Species N             5.15917785        1.54677369       53.81933836
  |  125: Species N             0.33888563        0.37758365       60.62843204
  |  126: Species N            -0.07089854        5.82890961       59.47615632
  |  127: Species N             4.46699283        7.07385651       61.52730633
  |  128: Species N             4.38378704        2.25666335       59.33537774
  |  129: Species N             2.87537665        3.99580190       63.40158387
  |  130: Species N            -1.40475999        7.06482268       68.91762326
  |  131: Species N             2.65546229        3.44581606       66.14248688
  |  132: Species N             1.50947695        5.21959271       64.99021115
  |  133: Species N             4.02042766        2.22115007       64.55385960
  |  134: Species N             5.60116203        1.61385836       70.06791443
  |  135: Species N             1.94965698        3.45881349       62.50469413
  |  136: Species N             1.06269719        0.36847749       68.01664039
  |  137: Species N             3.58115731        3.98258025       67.03937662
  |  138: Species N             0.32995527        5.87607502       64.69860726
  |  139: Species N             1.14635999        5.18603229       70.20869301
  |  140: Species N             5.20005036        1.56481242       64.84546349
  |  141: Species N             0.37976473        0.39562237       71.65455717
  |  142: Species N            -0.03002603        5.84694834       70.50228145
  |  143: Species N             4.50787193        7.09189524       72.55343146
  |  144: Species N             4.42466614        2.27470208       70.36150287
  |  145: Species N             2.91624411        4.01383339       74.42560043
  |  146: Species N            -1.36389408        7.08286141       79.94163981
  |  147: Species N             2.69632975        3.46384755       77.16650343
  |  148: Species N             1.55034287        5.23763144       76.01422771
  |  149: Species N             4.06129357        2.23918879       75.57787615
  |  150: Species N             5.64202794        1.63189709       81.09193099
  |  151: Species N             1.99053103        3.47684498       73.52871068
  |  152: Species N             1.10356970        0.38651622       79.04078098
  |  153: Species N             3.62202981        4.00061897       78.06339317
  |  154: Species N             0.37082118        5.89411375       75.72274784
  |  155: Species N             1.18722590        5.20407102       81.23270956
  |  156: Species N             5.24091627        1.58285114       75.86948005
  |  157: Species N             0.42063064        0.41366110       82.67857372
  |  158: Species N             0.01084143        5.86497983       81.52629800
  |  159: Species N             4.54873939        7.10992673       83.57744801
  |  160: Species N             4.46553205        2.29274080       81.38551943
  |  161: Species O             0.85583965        4.09640359       40.23327582
  |  162: Species O             0.44893857        6.89296296       45.74534611
  |  163: Species O             4.51144068        3.27276291       45.20840299
  |  164: Species O             2.12683981        2.31037449       39.99996789
  |  165: Species O             0.71830618        1.44305464       45.51005364
  |  166: Species O             3.24070055        5.05887158       45.44568000
  |  167: Species O             0.28426370        6.77207312       41.84001206
  |  168: Species O             1.02242597        4.21387229       47.35605144
  |  169: Species O             5.08199276        0.59629777       43.60166675
  |  170: Species O            -0.75556371        5.45464584       43.27384492
  |  171: Species O             6.12224247        1.91431091       42.17180297
  |  172: Species O             3.33536898        1.85289679       47.69392001
  |  173: Species O             4.95813012        0.49533443       50.72444237
  |  174: Species O             4.68841466        5.94501854       50.95973484
  |  175: Species O             4.38523823        3.17478674       49.11572158
  |  176: Species O             2.07213206        5.53553802       48.77586847
  |  177: Species O             0.89670711        4.11443509       51.25729237
  |  178: Species O             0.48980603        6.91099445       56.76936266
  |  179: Species O             4.55230660        3.29080164       56.23241954
  |  180: Species O             2.16770573        2.32841322       51.02410848
  |  181: Species O             0.75917209        1.46109336       56.53407019
  |  182: Species O             3.28156646        5.07691030       56.46982059
  |  183: Species O             0.32512961        6.79011185       52.86415264
  |  184: Species O             1.06329189        4.23191102       58.38019203
  |  185: Species O             5.12286681        0.61432926       54.62568330
  |  186: Species O            -0.71469625        5.47267733       54.29798551
  |  187: Species O             6.16310838        1.93234964       53.19594355
  |  188: Species O             3.37623489        1.87093552       58.71806060
  |  189: Species O             4.99899603        0.51337316       61.74858296
  |  190: Species O             4.72928058        5.96305726       61.98375139
  |  191: Species O             4.42610414        3.19282547       60.13973814
  |  192: Species O             2.11299797        5.55357675       59.79988502
  |  193: Species O             0.93757808        4.13248104       62.28341750
  |  194: Species O             0.53067854        6.92903318       67.79548779
  |  195: Species O             4.59317911        3.30884036       67.25854467
  |  196: Species O             2.20858483        2.34645194       62.05023361
  |  197: Species O             0.80005120        1.47913209       67.56019532
  |  198: Species O             3.32243897        5.09494903       67.49582169
  |  199: Species O             0.36600872        6.80815057       63.89015374
  |  200: Species O             1.10416440        4.24994974       69.40631716
  |  201: Species O             5.16373778        0.63237522       65.65180843
  |  202: Species O            -0.67382375        5.49071606       65.32398661
  |  203: Species O            -0.39177251        1.95038836       64.22206869
  |  204: Species O             3.41711400        1.88897424       69.74406170
  |  205: Species O             5.03987513        0.53141188       72.77458405
  |  206: Species O             4.77015309        5.98109599       73.00987652
  |  207: Species O             4.46697665        3.21086419       71.16586327
  |  208: Species O             2.15387048        5.57161547       70.82601015
  |  209: Species O             0.97844553        4.15051254       73.30755809
  |  210: Species O             0.57155105        6.94707190       78.81962838
  |  211: Species O             4.63404502        3.32687909       78.28268526
  |  212: Species O             2.24945229        2.36448343       73.07425016
  |  213: Species O             0.84091711        1.49717081       78.58433591
  |  214: Species O             3.36330643        5.11298052       78.51996227
  |  215: Species O             0.40687463        6.82618930       74.91429433
  |  216: Species O             1.14503185        4.26798124       80.43033371
  |  217: Species O             5.20460524        0.65040671       76.67582498
  |  218: Species O            -0.63295124        5.50875478       76.34812719
  |  219: Species O            -0.35090660        1.96842709       75.24608524
  |  220: Species O             3.45797991        1.90701297       80.76820228
  |  221: Species O             5.08074259        0.54944337       83.79872464
  |  222: Species O             4.81102560        5.99913471       84.03401711
  |  223: Species O             4.50784411        3.22889568       82.18987982
  |  224: Species O             2.19473639        5.58965420       81.85002670

  Lattice parameters for 3D lattice (in Angstroms) :     6.595760    7.396030  124.033985
  Angle(s) between unit vectors (in degrees)       :    90.000000   90.000000  102.058002

  |

  | The smallest distance between any two atoms is         1.09403791 AA.
  |
  | The first atom of this pair is atom number                     41 .
  | The second atom of this pair is atom number                    83 .
  | Wigner-Seitz cell of the first atom image           0     0     0 .
  | (The Wigner-Seitz cell of the second atom is 0 0 0  by definition.)

  Quantities derived from the lattice vectors:
  | Reciprocal lattice vector 1:  0.952610  0.203492  0.000000
  | Reciprocal lattice vector 2: -0.000000  0.868701  0.000000
  | Reciprocal lattice vector 3:  0.000000  0.000000  0.050657
  | Unit cell volume                               :   0.591718E+04  A^3

  Range separation radius for Ewald summation (hartree_convergence_parameter):      4.30013291 bohr.

  Fractional coordinates:
                         L1                L2                L3
       atom_frac         0.70223900        0.77144300        0.34225600  H
       atom_frac         0.85278600        0.74813200        0.38679300  H
       atom_frac         0.35004300        0.24736500        0.34663300  H
       atom_frac         0.75366800        0.39370200        0.32690200  H
       atom_frac         0.79963300        0.12525000        0.37140700  H
       atom_frac         0.29888400        0.62525600        0.36198700  H
       atom_frac         0.53204300        0.82993500        0.33235000  H
       atom_frac         0.02207800        0.68936300        0.37685400  H
       atom_frac         0.52044600        0.18899200        0.35650700  H
       atom_frac         0.85663900        0.55545300        0.33727800  H
       atom_frac         0.69810000        0.96439400        0.38186400  H
       atom_frac         0.19567400        0.46339500        0.35162700  H
       atom_frac         0.20636700        0.27336000        0.39099200  H
       atom_frac         0.25936900        0.89619100        0.40636200  H
       atom_frac         0.03706500        0.33214900        0.40093100  H
       atom_frac         0.36103300        0.05709800        0.39592100  H
       atom_frac         0.70901900        0.77393600        0.43113500  H
       atom_frac         0.85956700        0.75062600        0.47567200  H
       atom_frac         0.35682300        0.24985900        0.43551300  H
       atom_frac         0.76044800        0.39619500        0.41578200  H
       atom_frac         0.80641300        0.12774400        0.46028600  H
       atom_frac         0.30566400        0.62775000        0.45086700  H
       atom_frac         0.53882300        0.83242800        0.42122900  H
       atom_frac         0.02885800        0.69185700        0.46573400  H
       atom_frac         0.52722600        0.19148600        0.44538700  H
       atom_frac         0.86341900        0.55794700        0.42615800  H
       atom_frac         0.70488100        0.96688700        0.47074400  H
       atom_frac         0.20245400        0.46588900        0.44050600  H
       atom_frac         0.21314700        0.27585400        0.47987200  H
       atom_frac         0.26614900        0.89868500        0.49524100  H
       atom_frac         0.04384500        0.33464200        0.48981000  H
       atom_frac         0.36781300        0.05959200        0.48480000  H
       atom_frac         0.71580100        0.77643000        0.52003100  H
       atom_frac         0.86634800        0.75312000        0.56456800  H
       atom_frac         0.36360400        0.25235300        0.52440900  H
       atom_frac         0.76722900        0.39869000        0.50467700  H
       atom_frac         0.81319400        0.13023800        0.54918200  H
       atom_frac         0.31244600        0.63024400        0.53976200  H
       atom_frac         0.54560500        0.83492200        0.51012500  H
       atom_frac         0.03564000        0.69435100        0.55463000  H
       atom_frac         0.53400800        0.19398000        0.53428200  H
       atom_frac         0.87020100        0.56044100        0.51505400  H
       atom_frac         0.71166200        0.96938200        0.55963900  H
       atom_frac         0.20923500        0.46838300        0.52940200  H
       atom_frac         0.21992800        0.27834800        0.56876700  H
       atom_frac         0.27293100        0.90117900        0.58413700  H
       atom_frac         0.05062700        0.33713700        0.57870600  H
       atom_frac         0.37459400        0.06208600        0.57369600  H
       atom_frac         0.72258100        0.77892400        0.60891100  H
       atom_frac         0.87312800        0.75561400        0.65344800  H
       atom_frac         0.37038500        0.25484700        0.61328800  H
       atom_frac         0.77400900        0.40118300        0.59355700  H
       atom_frac         0.81997400        0.13273200        0.63806200  H
       atom_frac         0.31922600        0.63273800        0.62864200  H
       atom_frac         0.55238500        0.83741600        0.59900500  H
       atom_frac         0.04242000        0.69684500        0.64350900  H
       atom_frac         0.54078800        0.19647400        0.62316200  H
       atom_frac         0.87698100        0.56293400        0.60393300  H
       atom_frac         0.71844200        0.97187500        0.64851900  H
       atom_frac         0.21601600        0.47087700        0.61828200  H
       atom_frac         0.22670900        0.28084100        0.65764700  H
       atom_frac         0.27971100        0.90367300        0.67301700  H
       atom_frac         0.05740700        0.33963000        0.66758500  H
       atom_frac         0.38137400        0.06458000        0.66257600  H
       atom_frac         0.55095100        0.72621300        0.33834900  C
       atom_frac         0.00372600        0.79332200        0.38285300  C
       atom_frac         0.50140800        0.29262400        0.35050800  C
       atom_frac         0.72070600        0.45340800        0.33462000  C
       atom_frac         0.83370100        0.06615700        0.37912400  C
       atom_frac         0.33167500        0.56546000        0.35427000  C
       atom_frac         0.05540700        0.22818000        0.39493200  C
       atom_frac         0.22539100        0.95533500        0.39864500  C
       atom_frac         0.55773100        0.72870700        0.42722800  C
       atom_frac         0.01050600        0.79581500        0.47173300  C
       atom_frac         0.50818900        0.29511800        0.43938800  C
       atom_frac         0.72748700        0.45590200        0.42349900  C
       atom_frac         0.84048200        0.06865100        0.46800400  C
       atom_frac         0.33845600        0.56795300        0.44314900  C
       atom_frac         0.06218700        0.23067400        0.48381100  C
       atom_frac         0.23217100        0.95782800        0.48752400  C
       atom_frac         0.56451200        0.73120100        0.51612400  C
       atom_frac         0.01728700        0.79830900        0.56062800  C
       atom_frac         0.51497000        0.29761200        0.52828400  C
       atom_frac         0.73426800        0.45839600        0.51239500  C
       atom_frac         0.84726300        0.07114500        0.55689900  C
       atom_frac         0.34523700        0.57044700        0.53204500  C
       atom_frac         0.06896900        0.23316800        0.57270700  C
       atom_frac         0.23895200        0.96032200        0.57642000  C
       atom_frac         0.57129300        0.73369400        0.60500300  C
       atom_frac         0.02406800        0.80080300        0.64950800  C
       atom_frac         0.52175000        0.30010600        0.61716300  C
       atom_frac         0.74104800        0.46089000        0.60127400  C
       atom_frac         0.85404300        0.07363800        0.64577900  C
       atom_frac         0.35201700        0.57294100        0.62092400  C
       atom_frac         0.07574900        0.23566200        0.66158700  C
       atom_frac         0.24573200        0.96281600        0.66529900  C
       atom_frac         0.55179200        0.54746400        0.33338700  N
       atom_frac         0.00226500        0.97178100        0.37786000  N
       atom_frac         0.50063800        0.47142400        0.35548600  N
       atom_frac         0.38433900        0.71666300        0.34619600  N
       atom_frac         0.66792100        0.30210400        0.34267700  N
       atom_frac         0.88791200        0.21814200        0.38713300  N
       atom_frac         0.39405100        0.47322100        0.32615600  N
       atom_frac         0.15949100        0.04595800        0.37059600  N
       atom_frac         0.65837000        0.54563700        0.36271700  N
       atom_frac         0.22677000        0.80742700        0.34384500  N
       atom_frac         0.32819900        0.71202400        0.38826800  N
       atom_frac         0.82551000        0.21136000        0.34502800  N
       atom_frac         0.05682800        0.04971100        0.39992500  N
       atom_frac         0.17125000        0.80340000        0.39063500  N
       atom_frac         0.89957100        0.97552400        0.40717300  N
       atom_frac         0.73094300        0.30950800        0.38950000  N
       atom_frac         0.55857300        0.54995700        0.42226700  N
       atom_frac         0.00904500        0.97427500        0.46673900  N
       atom_frac         0.50741800        0.47391700        0.44436500  N
       atom_frac         0.39112000        0.71915700        0.43507500  N
       atom_frac         0.67470100        0.30459800        0.43155700  N
       atom_frac         0.89469300        0.22063500        0.47601300  N
       atom_frac         0.40083100        0.47571500        0.41503600  N
       atom_frac         0.16627100        0.04845100        0.45947600  N
       atom_frac         0.66515000        0.54813000        0.45159600  N
       atom_frac         0.23355000        0.80992100        0.43272400  N
       atom_frac         0.33497900        0.71451700        0.47714800  N
       atom_frac         0.83229100        0.21385400        0.43390800  N
       atom_frac         0.06360800        0.05220400        0.48880500  N
       atom_frac         0.17803000        0.80589400        0.47951500  N
       atom_frac         0.90635100        0.97801800        0.49605200  N
       atom_frac         0.73772300        0.31200200        0.47838000  N
       atom_frac         0.56535400        0.55245200        0.51116300  N
       atom_frac         0.01582700        0.97676900        0.55563500  N
       atom_frac         0.51420000        0.47641200        0.53326100  N
       atom_frac         0.39790100        0.72165100        0.52397100  N
       atom_frac         0.68148300        0.30709200        0.52045300  N
       atom_frac         0.90147400        0.22312900        0.56490900  N
       atom_frac         0.40761200        0.47820900        0.50393200  N
       atom_frac         0.17305200        0.05094500        0.54837100  N
       atom_frac         0.67193100        0.55062400        0.54049200  N
       atom_frac         0.24033200        0.81241500        0.52162000  N
       atom_frac         0.34176100        0.71701100        0.56604400  N
       atom_frac         0.83907200        0.21634800        0.52280400  N
       atom_frac         0.07039000        0.05469800        0.57770100  N
       atom_frac         0.18481100        0.80838800        0.56841100  N
       atom_frac         0.91313300        0.98051200        0.58494800  N
       atom_frac         0.74450500        0.31449600        0.56727600  N
       atom_frac         0.57213400        0.55494500        0.60004200  N
       atom_frac         0.02260700        0.97926300        0.64451400  N
       atom_frac         0.52098000        0.47890500        0.62214000  N
       atom_frac         0.40468100        0.72414500        0.61285000  N
       atom_frac         0.68826300        0.30958600        0.60933200  N
       atom_frac         0.90825400        0.22562300        0.65378800  N
       atom_frac         0.41439300        0.48070200        0.59281100  N
       atom_frac         0.17983300        0.05343900        0.63725100  N
       atom_frac         0.67871200        0.55311800        0.62937100  N
       atom_frac         0.24711200        0.81490900        0.61050000  N
       atom_frac         0.34854100        0.71950500        0.65492300  N
       atom_frac         0.84585200        0.21884200        0.61168300  N
       atom_frac         0.07717000        0.05719200        0.66658000  N
       atom_frac         0.19159100        0.81088100        0.65729000  N
       atom_frac         0.91991300        0.98300500        0.67382700  N
       atom_frac         0.75128500        0.31699000        0.65615500  N
       atom_frac         0.26242500        0.56636100        0.32437300  O
       atom_frac         0.29130500        0.95300800        0.36881300  O
       atom_frac         0.78998500        0.45248600        0.36448400  O
       atom_frac         0.39728100        0.31942800        0.32249200  O
       atom_frac         0.15564000        0.19951400        0.36691600  O
       atom_frac         0.65517100        0.69943000        0.36639700  O
       atom_frac         0.26242300        0.93629400        0.33732700  O
       atom_frac         0.29148600        0.58260200        0.38179900  O
       atom_frac         0.78980600        0.08244300        0.35153000  O
       atom_frac         0.06210500        0.75414900        0.34888700  O
       atom_frac         0.99020700        0.26466900        0.34000200  O
       atom_frac         0.56569300        0.25617800        0.38452300  O
       atom_frac         0.76775700        0.06848400        0.40895600  O
       atom_frac         0.90336200        0.82194700        0.41085300  O
       atom_frac         0.76767800        0.43894000        0.39598600  O
       atom_frac         0.49343900        0.76533300        0.39324600  O
       atom_frac         0.26920500        0.56885400        0.41325200  O
       atom_frac         0.29808500        0.95550100        0.45769200  O
       atom_frac         0.79676500        0.45498000        0.45336300  O
       atom_frac         0.40406100        0.32192200        0.41137200  O
       atom_frac         0.16242000        0.20200800        0.45579500  O
       atom_frac         0.66195100        0.70192400        0.45527700  O
       atom_frac         0.26920300        0.93878800        0.42620700  O
       atom_frac         0.29826600        0.58509600        0.47067900  O
       atom_frac         0.79658700        0.08493600        0.44040900  O
       atom_frac         0.06888500        0.75664200        0.43776700  O
       atom_frac         0.99698700        0.26716300        0.42888200  O
       atom_frac         0.57247300        0.25867200        0.47340300  O
       atom_frac         0.77453700        0.07097800        0.49783600  O
       atom_frac         0.91014200        0.82444100        0.49973200  O
       atom_frac         0.77445800        0.44143400        0.48486500  O
       atom_frac         0.50021900        0.76782700        0.48212500  O
       atom_frac         0.27598600        0.57134900        0.50214800  O
       atom_frac         0.30486600        0.95799500        0.54658800  O
       atom_frac         0.80354600        0.45747400        0.54225900  O
       atom_frac         0.41084300        0.32441600        0.50026800  O
       atom_frac         0.16920200        0.20450200        0.54469100  O
       atom_frac         0.66873200        0.70441800        0.54417200  O
       atom_frac         0.27598500        0.94128200        0.51510200  O
       atom_frac         0.30504700        0.58759000        0.55957500  O
       atom_frac         0.80336800        0.08743100        0.52930500  O
       atom_frac         0.07566600        0.75913600        0.52666200  O
       atom_frac         0.00376900        0.26965700        0.51777800  O
       atom_frac         0.57925500        0.26116600        0.56229800  O
       atom_frac         0.78131900        0.07347200        0.58673100  O
       atom_frac         0.91692300        0.82693500        0.58862800  O
[...]
  |                                 -0.00251932      -0.01752393       0.02774827
  ----------------------------------------------------------------------
  | Atom   212: O
  |   Hirshfeld charge        :     -0.14078133
  |   Free atom volume        :     23.60491416
  |   Hirshfeld volume        :     21.65291722
  |   Hirshfeld dipole vector :     -0.00696717       0.03314678       0.01136958
  |   Hirshfeld dipole moment :      0.03572839
  |   Hirshfeld second moments:      0.01768265      -0.00013540      -0.01403779
  |                                 -0.00013540       0.06053832       0.01240736
  |                                 -0.01403779       0.01240736       0.04195517
  ----------------------------------------------------------------------
  | Atom   213: O
  |   Hirshfeld charge        :     -0.13998612
  |   Free atom volume        :     23.60491416
  |   Hirshfeld volume        :     21.63876958
  |   Hirshfeld dipole vector :      0.00732354      -0.03285413       0.01086344
  |   Hirshfeld dipole moment :      0.03537008
  |   Hirshfeld second moments:      0.01831255      -0.00020181       0.01413618
  |                                 -0.00020181       0.06091485      -0.01233769
  |                                  0.01413618      -0.01233769       0.04246303
  ----------------------------------------------------------------------
  | Atom   214: O
  |   Hirshfeld charge        :     -0.14118546
  |   Free atom volume        :     23.60491416
  |   Hirshfeld volume        :     21.65635094
  |   Hirshfeld dipole vector :      0.00697246      -0.03319566      -0.01137563
  |   Hirshfeld dipole moment :      0.03577669
  |   Hirshfeld second moments:      0.01740037      -0.00013964      -0.01399597
  |                                 -0.00013964       0.06042634       0.01254179
  |                                 -0.01399597       0.01254179       0.04180758
  ----------------------------------------------------------------------
  | Atom   215: O
  |   Hirshfeld charge        :     -0.15414267
  |   Free atom volume        :     23.60491416
  |   Hirshfeld volume        :     21.86242988
  |   Hirshfeld dipole vector :      0.02022924      -0.03379893       0.02435792
  |   Hirshfeld dipole moment :      0.04631304
  |   Hirshfeld second moments:     -0.00900119       0.00828303       0.00339858
  |                                  0.00828303       0.04897419      -0.00370768
  |                                  0.00339858      -0.00370768       0.05801381
  ----------------------------------------------------------------------
  | Atom   216: O
  |   Hirshfeld charge        :     -0.15433293
  |   Free atom volume        :     23.60491416
  |   Hirshfeld volume        :     21.83237134
  |   Hirshfeld dipole vector :     -0.01950517       0.03408567       0.02423317
  |   Hirshfeld dipole moment :      0.04614684
  |   Hirshfeld second moments:     -0.00887491       0.00820306      -0.00310488
  |                                  0.00820306       0.04938307       0.00350420
  |                                 -0.00310488       0.00350420       0.05930056
  ----------------------------------------------------------------------
  | Atom   217: O
  |   Hirshfeld charge        :     -0.15387370
  |   Free atom volume        :     23.60491416
  |   Hirshfeld volume        :     21.85791645
  |   Hirshfeld dipole vector :     -0.02016544       0.03383156      -0.02446712
  |   Hirshfeld dipole moment :      0.04636657
  |   Hirshfeld second moments:     -0.00874830       0.00825003       0.00338684
  |                                  0.00825003       0.04917429      -0.00349912
  |                                  0.00338684      -0.00349912       0.05812359
  ----------------------------------------------------------------------
  | Atom   218: O
  |   Hirshfeld charge        :     -0.16735314
  |   Free atom volume        :     23.60491416
  |   Hirshfeld volume        :     21.91790784
  |   Hirshfeld dipole vector :      0.04037112      -0.00482599      -0.03000089
  |   Hirshfeld dipole moment :      0.05052891
  |   Hirshfeld second moments:      0.04424584       0.02772389      -0.00885718
  |                                  0.02772389       0.01154829       0.01343788
  |                                 -0.00885718       0.01343788       0.03252857
  ----------------------------------------------------------------------
  | Atom   219: O
  |   Hirshfeld charge        :     -0.16712923
  |   Free atom volume        :     23.60491416
  |   Hirshfeld volume        :     21.91316562
  |   Hirshfeld dipole vector :     -0.04038071       0.00469822       0.02995324
  |   Hirshfeld dipole moment :      0.05049626
  |   Hirshfeld second moments:      0.04443572       0.02765910      -0.00875029
  |                                  0.02765910       0.01170182       0.01351686
  |                                 -0.00875029       0.01351686       0.03271884
  ----------------------------------------------------------------------
  | Atom   220: O
  |   Hirshfeld charge        :     -0.17043668
  |   Free atom volume        :     23.60491416
  |   Hirshfeld volume        :     21.90124215
  |   Hirshfeld dipole vector :      0.04116443      -0.00464887       0.03030394
  |   Hirshfeld dipole moment :      0.05132691
  |   Hirshfeld second moments:      0.04433295       0.02740804       0.00819880
  |                                  0.02740804       0.01063006      -0.01320837
  |                                  0.00819880      -0.01320837       0.03287054
  ----------------------------------------------------------------------
  | Atom   221: O
  |   Hirshfeld charge        :     -0.17888207
  |   Free atom volume        :     23.60491416
  |   Hirshfeld volume        :     22.30634313
  |   Hirshfeld dipole vector :      0.04743535      -0.01916145      -0.02797999
  |   Hirshfeld dipole moment :      0.05831083
  |   Hirshfeld second moments:      0.04351721      -0.01863452       0.01406476
  |                                 -0.01863452       0.00323907       0.02285378
  |                                  0.01406476       0.02285378       0.00168363
  ----------------------------------------------------------------------
  | Atom   222: O
  |   Hirshfeld charge        :     -0.16441632
  |   Free atom volume        :     23.60491416
  |   Hirshfeld volume        :     22.31254995
  |   Hirshfeld dipole vector :      0.00948254       0.04862830      -0.03594308
  |   Hirshfeld dipole moment :      0.06120895
  |   Hirshfeld second moments:     -0.00265241      -0.00373836       0.03035934
  |                                 -0.00373836       0.04377666      -0.00147002
  |                                  0.03035934      -0.00147002       0.01359797
  ----------------------------------------------------------------------
  | Atom   223: O
  |   Hirshfeld charge        :     -0.16030004
  |   Free atom volume        :     23.60491416
  |   Hirshfeld volume        :     22.12459120
  |   Hirshfeld dipole vector :      0.02316390      -0.03266644      -0.03948130
  |   Hirshfeld dipole moment :      0.05623553
  |   Hirshfeld second moments:     -0.01274557       0.01094540       0.00038980
  |                                  0.01094540       0.04701102       0.00171842
  |                                  0.00038980       0.00171842       0.03816040
  ----------------------------------------------------------------------
  | Atom   224: O
  |   Hirshfeld charge        :     -0.16132275
  |   Free atom volume        :     23.60491416
  |   Hirshfeld volume        :     21.87381050
  |   Hirshfeld dipole vector :     -0.04001729       0.00598354      -0.03108016
  |   Hirshfeld dipole moment :      0.05102120
  |   Hirshfeld second moments:      0.04805865       0.03028488       0.00434316
  |                                  0.03028488       0.01298232      -0.01367524
  |                                  0.00434316      -0.01367524       0.03190642
  ----------------------------------------------------------------------

  Converging periodic supercell size for vdw calculation.
  Convergence accuracy (and time!) can be adjusted using the vdw_convergence_threshold keyword.
  | Shell number:     1
  |   VDW energy change:  -0.725984E+01 eV.
  |   Not converged.
  | Shell number:     2
  |   VDW energy change:  -0.156475E+00 eV.
  |   Not converged.
  | Shell number:     3
  |   VDW energy change:  -0.209993E-01 eV.
  |   Not converged.
  | Shell number:     4
  |   VDW energy change:  -0.553341E-02 eV.
  |   Not converged.
  | Shell number:     5
  |   VDW energy change:  -0.198888E-02 eV.
  |   Not converged.
  | Shell number:     6
  |   VDW energy change:  -0.860647E-03 eV.
  |   Not converged.
  | Shell number:     7
  |   VDW energy change:  -0.422717E-03 eV.
  |   Not converged.
  | Shell number:     8
  |   VDW energy change:  -0.228043E-03 eV.
  |   Not converged.
  | Shell number:     9
  |   VDW energy change:  -0.132387E-03 eV.
  |   Not converged.
  | Shell number:    10
  |   VDW energy change:  -0.815667E-04 eV.
  |   Not converged.
  | Shell number:    11
  |   VDW energy change:  -0.528018E-04 eV.
  |   Not converged.
  | Shell number:    12
  |   VDW energy change:  -0.356371E-04 eV.
  |   Not converged.
  | Shell number:    13
  |   VDW energy change:  -0.249229E-04 eV.
  |   Not converged.
  | Shell number:    14
  |   VDW energy change:  -0.179698E-04 eV.
  |   Not converged.
  | Shell number:    15
  |   VDW energy change:  -0.133015E-04 eV.
  |   Not converged.
  | Shell number:    16
  |   VDW energy change:  -0.100724E-04 eV.
  |   Not converged.
  | Shell number:    17
  |   VDW energy change:  -0.777922E-05 eV.
  |   Not converged.
  | Shell number:    18
  |   VDW energy change:  -0.611236E-05 eV.
  |   Not converged.
  | Shell number:    19
  |   VDW energy change:  -0.487553E-05 eV.
  |   Not converged.
  | Shell number:    20
  |   VDW energy change:  -0.394083E-05 eV.
  |   Not converged.
  | Shell number:    21
  |   VDW energy change:  -0.322287E-05 eV.
  |   Not converged.
  | Shell number:    22
  |   VDW energy change:  -0.266331E-05 eV.
  |   Not converged.
  | Shell number:    23
  |   VDW energy change:  -0.222151E-05 eV.
  |   Converged.

  Total energy components:
  | Sum of eigenvalues            :       -5408.61615725 Ha     -147175.93386776 eV
  | XC energy correction          :       -1179.30299208 Ha      -32090.46715944 eV
  | XC potential correction       :        1516.41204741 Ha       41263.67128242 eV
  | Free-atom electrostatic energy:       -4429.95838639 Ha     -120545.30097101 eV
  | Hartree energy correction     :         -75.15793521 Ha       -2045.15147310 eV
  | vdW energy correction         :          -0.48433983 Ha         -13.17955733 eV
  | Entropy correction            :           0.00000000 Ha           0.00000000 eV
  | ---------------------------
  | Total energy                  :       -9577.10776334 Ha     -260606.36174623 eV
  | Total energy, T -> 0          :       -9577.10776334 Ha     -260606.36174623 eV  <-- do not rely on this value for anything but (periodic) metals
  | Electronic free energy        :       -9577.10776334 Ha     -260606.36174623 eV

  Derived energy quantities:
  | Kinetic energy                :        9561.17882643 Ha      260172.91331938 eV
  | Electrostatic energy          :      -17958.49925787 Ha     -488675.62834883 eV
  | Energy correction for multipole
  | error in Hartree potential    :           1.67723502 Ha          45.63988705 eV
  | Sum of eigenvalues per atom                           :        -657.03541905 eV
  | Total energy (T->0) per atom                          :       -1163.42125780 eV  <-- do not rely on this value for anything but (periodic) metals
  | Electronic free energy per atom                       :       -1163.42125780 eV
  Timings for VdW correction (Tkatchenko-Scheffler 2009 or later):
  | CPU time:       15.875 s, Wall clock time:       15.876 s.

  Energy and forces in a compact form:
  | Total energy uncorrected      :         -0.260606361746228E+06 eV
  | Total energy corrected        :         -0.260606361746228E+06 eV  <-- do not rely on this value for anything but (periodic) metals
  | Electronic free energy        :         -0.260606361746228E+06 eV

  ------------------------------------ 
  Start decomposition of the XC Energy 
  ------------------------------------ 
  X and C from original XC functional choice 
  Hartree-Fock Energy :          0.000000000 Ha              0.000000000 eV
  X Energy            :      -1137.150979952 Ha         -30943.452550029 eV
  C Energy            :        -42.152012126 Ha          -1147.014609415 eV
  Total XC Energy     :      -1179.302992078 Ha         -32090.467159444 eV
  ------------------------------------ 
  LDA X and C from self-consistent density 
  X Energy LDA        :      -1034.448467289 Ha         -28148.774988849 eV
  C Energy LDA        :        -82.489358159 Ha          -2244.649642013 eV
  ------------------------------------ 
  End decomposition of the XC Energy 
  ------------------------------------ 

------------------------------------------------------------

------------------------------------------------------------------------------
  Final output of selected total energy values:

  The following output summarizes some interesting total energy values
  at the end of a run (AFTER all relaxation, molecular dynamics, etc.).

  | Total energy of the DFT / Hartree-Fock s.c.f. calculation      :        -260606.361746228 eV
  | Final zero-broadening corrected energy (caution - metals only) :        -260606.361746228 eV
  | For reference only, the value of 1 Hartree used in FHI-aims is :             27.211384500 eV

  Before relying on these values, please be sure to understand exactly which
  total energy value is referred to by a given number. Different objects may
  all carry the same name 'total energy'. Definitions:

  Total energy of the DFT / Hartree-Fock s.c.f. calculation:
  | Note that this energy does not include ANY quantities calculated after the
  | s.c.f. cycle, in particular not ANY RPA, MP2, etc. many-body perturbation terms.

  Final zero-broadening corrected energy:
  | For metallic systems only, a broadening of the occupation numbers at the Fermi
  | level can be extrapolated back to zero broadening by an electron-gas inspired
  | formula. For all systems that are not real metals, this value can be
  | meaningless and should be avoided.

------------------------------------------------------------------------------
  Methods described in the following list of references were used in this FHI-aims run.
  If you publish the results, please make sure to cite these reference if they apply.
  FHI-aims is an academic code, and for our developers (often, Ph.D. students
  and postdocs), scientific credit in the community is essential.
  Thank you for helping us!

  For any use of FHI-aims, please cite:

    Volker Blum, Ralf Gehrke, Felix Hanke, Paula Havu, Ville Havu,
    Xinguo Ren, Karsten Reuter, and Matthias Scheffler
    'Ab initio molecular simulations with numeric atom-centered orbitals'
    Computer Physics Communications 180, 2175-2196 (2009)
    http://dx.doi.org/10.1016/j.cpc.2009.06.022


  The scalable eigensolver library ELPA was used in your run.
  ELPA is essential especially for large systems on hundreds or thousands of CPUs.
  For ELPA, please cite:

    Andreas Marek, Volker Blum, Rainer Johanni, Ville Havu, Bruno Lang,
    Thomas Auckenthaler, Alexander Heinecke, Hans-Joachim Bungartz, and Hermann Lederer,
    'The ELPA Library - Scalable Parallel Eigenvalue Solutions
    for Electronic Structure Theory and Computational Science'
    The Journal of Physics: Condensed Matter 26, 213201 (2014).
    http://dx.doi.org/10.1088/0953-8984/26/21/213201


  The ELSI infrastructure was used in your run to solve the Kohn-Sham electronic structure.
  Please check out http://elsi-interchange.org to learn more.
  If scalability is important for your project, please acknowledge ELSI by citing:

    V. W-z. Yu, F. Corsetti, A. Garcia, W. P. Huhn, M. Jacquelin, W. Jia,
    B. Lange, L. Lin, J. Lu, W. Mi, A. Seifitokaldani, A. Vazquez-Mayagoitia,
    C. Yang, H. Yang, and V. Blum
    'ELSI: A unified software interface for Kohn-Sham electronic structure solvers'
    Computer Physics Communications 222, 267-285 (2018).
    http://dx.doi.org/10.1016/j.cpc.2017.09.007


  For the real-space grid partitioning and parallelization used in this calculation, please cite:

    Ville Havu, Volker Blum, Paula Havu, and Matthias Scheffler,
    'Efficient O(N) integration for all-electron electronic structure calculation'
    'using numerically tabulated basis functions'
    Journal of Computational Physics 228, 8367-8379 (2009).
    http://dx.doi.org/10.1016/j.jcp.2009.08.008

  Of course, there are many other important community references, e.g., those cited in the
  above references. Our list is limited to references that describe implementations in the
  FHI-aims code. The reason is purely practical (length of this list) - please credit others as well.

------------------------------------------------------------
          Leaving FHI-aims.
          Date     :  20200213, Time     :  152057.103

          Computational steps:
          | Number of self-consistency cycles          :           27
          | Number of SCF (re)initializations          :            1

          Detailed time accounting                     :  max(cpu_time)    wall_clock(cpu1)
          | Total time                                 :     1104.039 s        1113.617 s
          | Preparation time                           :        0.247 s           0.247 s
          | Boundary condition initalization           :        7.432 s           7.432 s
          | Grid partitioning                          :        2.807 s           2.804 s
          | Preloading free-atom quantities on grid    :        0.007 s           0.010 s
          | Free-atom superposition energy             :        1.073 s           1.073 s
          | Total time for integrations                :       95.855 s          95.855 s
          | Total time for solution of K.-S. equations :      250.654 s         250.646 s
          | Total time for density update              :      142.829 s         142.740 s
          | Total time for mixing & preconditioning    :      313.740 s         313.737 s
          | Total time for Hartree multipole update    :        0.412 s           0.425 s
          | Total time for Hartree multipole sum       :      266.091 s         266.094 s
          | Total time for total energy evaluation     :        0.027 s           0.057 s
          | Total time for scaled ZORA corrections     :        0.000 s           0.000 s
          | Total time for vdW correction              :       15.875 s          15.876 s

          Partial memory accounting:
          | Residual value for overall tracked memory usage across tasks :        8194.650 MB (should be 0.000 MB)
          |
          | Largest tracked array allocation (+KS_eigenvector_complex):
          |   Minimum:       52.429 MB (on task  1)
          |   Maximum:       52.429 MB (on task  1)
          |   Average:       52.429 MB
          |
          | Because the residual tracked memory usage was not zero, the peak value for overall
          | tracked memory usage was not output, as it is probably incorrect.  This is likely due
          | to a missing aims_deallocate statement in the source code, which should be otherwise
          | harmless.
          |
          Note:  These values currently only include a subset of arrays which are explicitly tracked.
          The "true" memory usage will be greater.

          Have a nice day.
------------------------------------------------------------
