  MPI-parallelism will be employed.
------------------------------------------------------------
          Invoking FHI-aims ...
          Version 180424
          Compiled on 2018/04/28 at 19:12:01 on host coe.psc.edu.

          When using FHI-aims, please cite the following reference:

          Volker Blum, Ralf Gehrke, Felix Hanke, Paula Havu,
          Ville Havu, Xinguo Ren, Karsten Reuter, and Matthias Scheffler,
          'Ab Initio Molecular Simulations with Numeric Atom-Centered Orbitals',
          Computer Physics Communications 180, 2175-2196 (2009)

          For any questions about FHI-aims, please visit the aimsclub website
          with its forums and wiki. Contributions to both the forums and the
          wiki are warmly encouraged - they are for you, and everyone is welcome there.

------------------------------------------------------------



  Date     :  20200214, Time     :  145256.617
  Time zero on CPU 1             :   0.420160000000000E-01  s.
  Internal wall clock time zero  :           350923976.617  s.

  FHI-aims created a unique identifier for this run for later identification
  aims_uuid : 06675981-5041-471D-A5E5-33FF2E9442E2

  Using       56 parallel tasks.
  Task        0 on host d020 reporting.
  Task        1 on host d020 reporting.
  Task        2 on host d020 reporting.
  Task        3 on host d020 reporting.
  Task        4 on host d020 reporting.
  Task        5 on host d020 reporting.
  Task        6 on host d020 reporting.
  Task        7 on host d020 reporting.
  Task        8 on host d020 reporting.
  Task        9 on host d020 reporting.
  Task       10 on host d020 reporting.
  Task       11 on host d020 reporting.
  Task       12 on host d020 reporting.
  Task       13 on host d020 reporting.
  Task       14 on host d020 reporting.
  Task       15 on host d020 reporting.
  Task       16 on host d020 reporting.
  Task       17 on host d020 reporting.
  Task       18 on host d020 reporting.
  Task       19 on host d020 reporting.
  Task       20 on host d020 reporting.
  Task       21 on host d020 reporting.
  Task       22 on host d020 reporting.
  Task       23 on host d020 reporting.
  Task       24 on host d020 reporting.
  Task       25 on host d020 reporting.
  Task       26 on host d020 reporting.
  Task       27 on host d020 reporting.
  Task       28 on host d020 reporting.
  Task       29 on host d020 reporting.
  Task       30 on host d020 reporting.
  Task       31 on host d020 reporting.
  Task       32 on host d020 reporting.
  Task       33 on host d020 reporting.
  Task       34 on host d020 reporting.
  Task       35 on host d020 reporting.
  Task       36 on host d020 reporting.
  Task       37 on host d020 reporting.
  Task       38 on host d020 reporting.
  Task       39 on host d020 reporting.
  Task       40 on host d020 reporting.
  Task       41 on host d020 reporting.
  Task       42 on host d020 reporting.
  Task       43 on host d020 reporting.
  Task       44 on host d020 reporting.
  Task       45 on host d020 reporting.
  Task       46 on host d020 reporting.
  Task       47 on host d020 reporting.
  Task       48 on host d020 reporting.
  Task       49 on host d020 reporting.
  Task       50 on host d020 reporting.
  Task       51 on host d020 reporting.
  Task       52 on host d020 reporting.
  Task       53 on host d020 reporting.
  Task       54 on host d020 reporting.
  Task       55 on host d020 reporting.

  Performing system and environment tests:
  *** Environment variable OMP_NUM_THREADS is not set
  *** For performance reasons you might want to set it to 1
  | Stacksize not measured: no C compiler
  | Checking for scalapack...
  | Testing pdtran()...
  | All pdtran() tests passed.

  Obtaining array dimensions for all initial allocations:
  
  -----------------------------------------------------------------------
  Parsing control.in (first pass over file, find array dimensions only).
  The contents of control.in will be repeated verbatim below
  unless switched off by setting 'verbatim_writeout .false.' .
  in the first line of control.in .
  -----------------------------------------------------------------------
  
  #===============================================================================
  # FHI-aims file: ./control.in
  # Created using the Atomic Simulation Environment (ASE)
  # Tue Feb 11 11:38:02 2020
  #===============================================================================
  xc                                 pbe
  spin                               none
  relativistic                       atomic_zora scalar
  charge                             0
  occupation_type                    gaussian 0.01
  mixer                              pulay
  n_max_pulay                        8
  charge_mix_param                   0.02
  sc_accuracy_rho                    0.0001
  sc_accuracy_eev                    0.01
  sc_accuracy_etot                   1e-06
  sc_iter_limit                      10000
  KS_method                          parallel
  empty_states                       6
  basis_threshold                    1e-05
  k_grid                             4 4 1
  vdw_correction_hirshfeld
  use_dipole_correction              .true.
  #===============================================================================
  
  ################################################################################
  #
  #  FHI-aims code project
  #  VB, Fritz-Haber Institut, 2009
  #
  #  Suggested "light" defaults for H atom (to be pasted into control.in file)
  #  Be sure to double-check any results obtained with these settings for post-processing,
  #  e.g., with the "tight" defaults and larger basis sets.
  #
  ################################################################################
    species        H
  #     global species definitions
      nucleus             1
      mass                1.00794
  #
      l_hartree           4
  #
      cut_pot             3.5  1.5  1.0
      basis_dep_cutoff    1e-4
  #
      radial_base         24 5.0
      radial_multiplier   1
      angular_grids       specified
        division   0.2421   50
        division   0.3822  110
        division   0.4799  194
        division   0.5341  302
  #      division   0.5626  434
  #      division   0.5922  590
  #      division   0.6542  770
  #      division   0.6868 1202
  #      outer_grid  770
        outer_grid  302
  ################################################################################
  #
  #  Definition of "minimal" basis
  #
  ################################################################################
  #     valence basis states
      valence      1  s   1.
  #     ion occupancy
      ion_occ      1  s   0.5
  ################################################################################
  #
  #  Suggested additional basis functions. For production calculations,
  #  uncomment them one after another (the most important basis functions are
  #  listed first).
  #
  #  Basis constructed for dimers: 0.5 A, 0.7 A, 1.0 A, 1.5 A, 2.5 A
  #
  ################################################################################
  #  "First tier" - improvements: -1014.90 meV to -62.69 meV
       hydro 2 s 2.1
       hydro 2 p 3.5
  #  "Second tier" - improvements: -12.89 meV to -1.83 meV
  #     hydro 1 s 0.85
  #     hydro 2 p 3.7
  #     hydro 2 s 1.2
  #     hydro 3 d 7
  #  "Third tier" - improvements: -0.25 meV to -0.12 meV
  #     hydro 4 f 11.2
  #     hydro 3 p 4.8
  #     hydro 4 d 9
  #     hydro 3 s 3.2
  ################################################################################
  #
  #  FHI-aims code project
  #  VB, Fritz-Haber Institut, 2009
  #
  #  Suggested "light" defaults for C atom (to be pasted into control.in file)
  #  Be sure to double-check any results obtained with these settings for post-processing,
  #  e.g., with the "tight" defaults and larger basis sets.
  #
  ################################################################################
    species        C
  #     global species definitions
      nucleus             6
      mass                12.0107
  #
      l_hartree           4
  #
      cut_pot             3.5  1.5  1.0
      basis_dep_cutoff    1e-4
  #
      radial_base         34 5.0
      radial_multiplier   1
      angular_grids specified
        division   0.3326   50
        division   0.5710  110
        division   0.7727  194
        division   0.8772  302
  #      division   0.9334  434
  #      division   0.9625  590
  #      division   0.9924  770
  #      division   1.0230  974
  #      division   1.4589 1202
  #     outer_grid  974
       outer_grid 302
  ################################################################################
  #
  #  Definition of "minimal" basis
  #
  ################################################################################
  #     valence basis states
      valence      2  s   2.
      valence      2  p   2.
  #     ion occupancy
      ion_occ      2  s   1.
      ion_occ      2  p   1.
  ################################################################################
  #
  #  Suggested additional basis functions. For production calculations,
  #  uncomment them one after another (the most important basis functions are
  #  listed first).
  #
  #  Constructed for dimers: 1.0 A, 1.25 A, 1.5 A, 2.0 A, 3.0 A
  #
  ################################################################################
  #  "First tier" - improvements: -1214.57 meV to -155.61 meV
       hydro 2 p 1.7
       hydro 3 d 6
       hydro 2 s 4.9
  #  "Second tier" - improvements: -67.75 meV to -5.23 meV
  #     hydro 4 f 9.8
  #     hydro 3 p 5.2
  #     hydro 3 s 4.3
  #     hydro 5 g 14.4
  #     hydro 3 d 6.2
  #  "Third tier" - improvements: -2.43 meV to -0.60 meV
  #     hydro 2 p 5.6
  #     hydro 2 s 1.4
  #     hydro 3 d 4.9
  #     hydro 4 f 11.2
  #  "Fourth tier" - improvements: -0.39 meV to -0.18 meV
  #     hydro 2 p 2.1
  #     hydro 5 g 16.4
  #     hydro 4 d 13.2
  #     hydro 3 s 13.6
  #     hydro 4 f 17.6
  #  Further basis functions - improvements: -0.08 meV and below
  #     hydro 3 s 2
  #     hydro 3 p 6
  #     hydro 4 d 20
  ################################################################################
  #
  #  FHI-aims code project
  #  VB, Fritz-Haber Institut, 2009
  #
  #  Suggested "light" defaults for N atom (to be pasted into control.in file)
  #  Be sure to double-check any results obtained with these settings for post-processing,
  #  e.g., with the "tight" defaults and larger basis sets.
  #
  ################################################################################
    species        N
  #     global species definitions
      nucleus             7
      mass                14.0067
  #
      l_hartree           4
  #
      cut_pot             3.5  1.5  1.0
      basis_dep_cutoff    1e-4
  #
      radial_base         35 5.0
      radial_multiplier   1
      angular_grids       specified
        division   0.2599   50
        division   0.4601  110
        division   0.5885  194
        division   0.6503  302
  #      division   0.6939  434
  #      division   0.7396  590
  #      division   0.7632  770
  #      division   0.8122  974
  #      division   1.1604 1202
  #      outer_grid  974
        outer_grid  302
  ################################################################################
  #
  #  Definition of "minimal" basis
  #
  ################################################################################
  #     valence basis states
      valence      2  s   2.
      valence      2  p   3.
  #     ion occupancy
      ion_occ      2  s   1.
      ion_occ      2  p   2.
  ################################################################################
  #
  #  Suggested additional basis functions. For production calculations,
  #  uncomment them one after another (the most important basis functions are
  #  listed first).
  #
  #  Constructed for dimers: 1.0 A, 1.1 A, 1.5 A, 2.0 A, 3.0 A
  #
  ################################################################################
  #  "First tier" - improvements: -1193.42 meV to -220.60 meV
       hydro 2 p 1.8
       hydro 3 d 6.8
       hydro 3 s 5.8
  #  "Second tier" - improvements: -80.21 meV to -6.86 meV
  #     hydro 4 f 10.8
  #     hydro 3 p 5.8
  #     hydro 1 s 0.8
  #     hydro 5 g 16
  #     hydro 3 d 4.9
  #  "Third tier" - improvements: -4.29 meV to -0.53 meV
  #     hydro 3 s 16
  #     ionic 2 p auto
  #     hydro 3 d 6.6
  #     hydro 4 f 11.6
  #  "Fourth tier" - improvements: -0.75 meV to -0.25 meV
  #     hydro 2 p 4.5
  #     hydro 2 s 2.4
  #     hydro 5 g 14.4
  #     hydro 4 d 14.4
  #     hydro 4 f 16.8
  # Further basis functions - -0.21 meV and below
  #     hydro 3 p 14.8
  #     hydro 3 s 4.4
  #     hydro 3 d 19.6
  #     hydro 5 g 12.8
  ################################################################################
  #
  #  FHI-aims code project
  #  VB, Fritz-Haber Institut, 2009
  #
  #  Suggested "light" defaults for O atom (to be pasted into control.in file)
  #  Be sure to double-check any results obtained with these settings for post-processing,
  #  e.g., with the "tight" defaults and larger basis sets.
  #
  ################################################################################
    species        O
  #     global species definitions
      nucleus             8
      mass                15.9994
  #
      l_hartree           4
  #
      cut_pot             3.5  1.5  1.0
      basis_dep_cutoff    1e-4
  #
      radial_base         36 5.0
      radial_multiplier   1
       angular_grids specified
        division   0.2659   50
        division   0.4451  110
        division   0.6052  194
        division   0.7543  302
  #      division   0.8014  434
  #      division   0.8507  590
  #      division   0.8762  770
  #      division   0.9023  974
  #      division   1.2339 1202
  #      outer_grid 974
        outer_grid 302
  ################################################################################
  #
  #  Definition of "minimal" basis
  #
  ################################################################################
  #     valence basis states
      valence      2  s   2.
      valence      2  p   4.
  #     ion occupancy
      ion_occ      2  s   1.
      ion_occ      2  p   3.
  ################################################################################
  #
  #  Suggested additional basis functions. For production calculations,
  #  uncomment them one after another (the most important basis functions are
  #  listed first).
  #
  #  Constructed for dimers: 1.0 A, 1.208 A, 1.5 A, 2.0 A, 3.0 A
  #
  ################################################################################
  #  "First tier" - improvements: -699.05 meV to -159.38 meV
       hydro 2 p 1.8
       hydro 3 d 7.6
       hydro 3 s 6.4
  #  "Second tier" - improvements: -49.91 meV to -5.39 meV
  #     hydro 4 f 11.6
  #     hydro 3 p 6.2
  #     hydro 3 d 5.6
  #     hydro 5 g 17.6
  #     hydro 1 s 0.75
  #  "Third tier" - improvements: -2.83 meV to -0.50 meV
  #     ionic 2 p auto
  #     hydro 4 f 10.8
  #     hydro 4 d 4.7
  #     hydro 2 s 6.8
  #  "Fourth tier" - improvements: -0.40 meV to -0.12 meV
  #     hydro 3 p 5
  #     hydro 3 s 3.3
  #     hydro 5 g 15.6
  #     hydro 4 f 17.6
  #     hydro 4 d 14
  # Further basis functions - -0.08 meV and below
  #     hydro 3 s 2.1
  #     hydro 4 d 11.6
  #     hydro 3 p 16
  #     hydro 2 s 17.2
  
  -----------------------------------------------------------------------
  Completed first pass over input file control.in .
  -----------------------------------------------------------------------
  
  
  -----------------------------------------------------------------------
  Parsing geometry.in (first pass over file, find array dimensions only).
  The contents of geometry.in will be repeated verbatim below
  unless switched off by setting 'verbatim_writeout .false.' .
  in the first line of geometry.in .
  -----------------------------------------------------------------------
  
  #=======================================================
  # FHI-aims file: ./geometry.in
  # Created using the Atomic Simulation Environment (ASE)
  # Tue Feb 11 11:38:02 2020
  #=======================================================
  lattice_vector 6.5957600000000003 0.0000000000000000 0.0000000000000000
  lattice_vector -1.5450440000000001 7.2328489999999999 0.0000000000000000
  lattice_vector 0.0000000000000000 0.0000000000000000 168.1343329999999980
  atom_frac 0.7022389999999999 0.7714430000000000 0.2524850000000000 H
  atom_frac 0.8527860000000000 0.7481320000000000 0.2853400000000000 H
  atom_frac 0.3500430000000000 0.2473650000000000 0.2557140000000000 H
  atom_frac 0.7536680000000000 0.3937020000000000 0.2411580000000000 H
  atom_frac 0.7996330000000000 0.1252500000000000 0.2739900000000000 H
  atom_frac 0.2988840000000000 0.6252560000000000 0.2670410000000000 H
  atom_frac 0.5320430000000000 0.8299350000000000 0.2451770000000000 H
  atom_frac 0.0220780000000000 0.6893629999999999 0.2780080000000000 H
  atom_frac 0.5204460000000000 0.1889920000000000 0.2629980000000000 H
  atom_frac 0.8566390000000000 0.5554530000000000 0.2488130000000000 H
  atom_frac 0.6981000000000001 0.9643940000000000 0.2817040000000000 H
  atom_frac 0.1956740000000000 0.4633950000000000 0.2593980000000000 H
  atom_frac 0.2063670000000000 0.2733600000000000 0.2884380000000000 H
  atom_frac 0.2593690000000000 0.8961910000000000 0.2997760000000000 H
  atom_frac 0.0370650000000000 0.3321490000000000 0.2957700000000000 H
  atom_frac 0.3610330000000000 0.0570980000000000 0.2920740000000000 H
  atom_frac 0.7090190000000000 0.7739360000000000 0.3180520000000000 H
  atom_frac 0.8595670000000000 0.7506260000000000 0.3509070000000000 H
  atom_frac 0.3568230000000001 0.2498590000000000 0.3212810000000000 H
  atom_frac 0.7604480000000000 0.3961950000000000 0.3067250000000000 H
  atom_frac 0.8064130000000000 0.1277440000000000 0.3395570000000000 H
  atom_frac 0.3056640000000000 0.6277500000000000 0.3326080000000000 H
  atom_frac 0.5388230000000001 0.8324279999999999 0.3107440000000000 H
  atom_frac 0.0288580000000000 0.6918570000000001 0.3435750000000000 H
  atom_frac 0.5272260000000000 0.1914860000000000 0.3285650000000000 H
  atom_frac 0.8634190000000002 0.5579470000000000 0.3143800000000000 H
  atom_frac 0.7048810000000000 0.9668869999999999 0.3472710000000000 H
  atom_frac 0.2024540000000000 0.4658890000000000 0.3249650000000000 H
  atom_frac 0.2131470000000000 0.2758540000000000 0.3540050000000000 H
  atom_frac 0.2661490000000000 0.8986850000000000 0.3653430000000000 H
  atom_frac 0.0438450000000000 0.3346419999999999 0.3613370000000000 H
  atom_frac 0.3678130000000000 0.0595920000000000 0.3576410000000000 H
  atom_frac 0.7158010000000001 0.7764300000000000 0.3836310000000000 H
  atom_frac 0.8663480000000000 0.7531200000000000 0.4164860000000001 H
  atom_frac 0.3636040000000000 0.2523530000000000 0.3868600000000000 H
  atom_frac 0.7672289999999999 0.3986900000000000 0.3723040000000000 H
  atom_frac 0.8131939999999999 0.1302380000000000 0.4051360000000001 H
  atom_frac 0.3124460000000000 0.6302440000000000 0.3981870000000000 H
  atom_frac 0.5456050000000000 0.8349220000000001 0.3763230000000000 H
  atom_frac 0.0356400000000000 0.6943510000000001 0.4091550000000000 H
  atom_frac 0.5340080000000000 0.1939800000000000 0.3941440000000000 H
  atom_frac 0.8702010000000000 0.5604410000000000 0.3799590000000000 H
  atom_frac 0.7116620000000000 0.9693820000000000 0.4128500000000000 H
  atom_frac 0.2092350000000000 0.4683830000000000 0.3905440000000000 H
  atom_frac 0.2199280000000000 0.2783480000000000 0.4195840000000000 H
  atom_frac 0.2729310000000000 0.9011790000000000 0.4309230000000001 H
  atom_frac 0.0506270000000000 0.3371370000000000 0.4269160000000001 H
  atom_frac 0.3745940000000000 0.0620860000000000 0.4232200000000000 H
  atom_frac 0.7225810000000000 0.7789239999999999 0.4491980000000000 H
  atom_frac 0.8731279999999999 0.7556140000000000 0.4820530000000000 H
  atom_frac 0.3703850000000000 0.2548470000000000 0.4524270000000000 H
  atom_frac 0.7740089999999998 0.4011830000000000 0.4378720000000000 H
  atom_frac 0.8199740000000000 0.1327320000000000 0.4707030000000000 H
  atom_frac 0.3192260000000000 0.6327380000000000 0.4637540000000001 H
  atom_frac 0.5523850000000000 0.8374160000000000 0.4418900000000000 H
  atom_frac 0.0424200000000000 0.6968450000000000 0.4747220000000000 H
  atom_frac 0.5407880000000000 0.1964740000000000 0.4597110000000000 H
  atom_frac 0.8769810000000000 0.5629340000000000 0.4455260000000000 H
  atom_frac 0.7184420000000000 0.9718750000000000 0.4784170000000000 H
  atom_frac 0.2160160000000000 0.4708770000000000 0.4561110000000000 H
  atom_frac 0.2267090000000000 0.2808410000000000 0.4851510000000000 H
  atom_frac 0.2797110000000000 0.9036729999999999 0.4964900000000000 H
  atom_frac 0.0574070000000000 0.3396300000000000 0.4924830000000000 H
  atom_frac 0.3813740000000000 0.0645800000000000 0.4887870000000000 H
  atom_frac 0.7293620000000000 0.7814179999999999 0.5147770000000000 H
  atom_frac 0.8799100000000000 0.7581080000000000 0.5476320000000000 H
  atom_frac 0.3771659999999999 0.2573410000000000 0.5180060000000000 H
  atom_frac 0.7807910000000000 0.4036770000000000 0.5034510000000000 H
  atom_frac 0.8267560000000000 0.1352260000000000 0.5362820000000000 H
  atom_frac 0.3260070000000000 0.6352320000000000 0.5293330000000001 H
  atom_frac 0.5591660000000001 0.8399100000000000 0.5074689999999999 H
  atom_frac 0.0492010000000000 0.6993390000000000 0.5403010000000000 H
  atom_frac 0.5475690000000000 0.1989680000000000 0.5252900000000000 H
  atom_frac 0.8837619999999999 0.5654280000000000 0.5111050000000000 H
  atom_frac 0.7252240000000000 0.9743690000000000 0.5439960000000000 H
  atom_frac 0.2227970000000000 0.4733710000000000 0.5216900000000000 H
  atom_frac 0.2334900000000000 0.2833350000000000 0.5507300000000001 H
  atom_frac 0.2864920000000000 0.9061669999999999 0.5620690000000000 H
  atom_frac 0.0641880000000000 0.3421240000000000 0.5580619999999999 H
  atom_frac 0.3881560000000000 0.0670740000000000 0.5543660000000000 H
  atom_frac 0.7361420000000000 0.7839120000000001 0.5803440000000000 H
  atom_frac 0.8866900000000000 0.7606010000000000 0.6132000000000000 H
  atom_frac 0.3839460000000000 0.2598350000000000 0.5835740000000000 H
  atom_frac 0.7875710000000000 0.4061710000000000 0.5690180000000000 H
  atom_frac 0.8335359999999999 0.1377200000000000 0.6018490000000000 H
  atom_frac 0.3327870000000000 0.6377250000000000 0.5949000000000000 H
  atom_frac 0.5659470000000000 0.8424040000000000 0.5730360000000000 H
  atom_frac 0.0559820000000000 0.7018320000000000 0.6058680000000000 H
  atom_frac 0.5543490000000000 0.2014620000000000 0.5908570000000000 H
  atom_frac 0.8905430000000000 0.5679219999999999 0.5766720000000000 H
  atom_frac 0.7320040000000000 0.9768630000000000 0.6095640000000000 H
  atom_frac 0.2295770000000000 0.4758650000000000 0.5872570000000000 H
  atom_frac 0.2402700000000000 0.2858290000000000 0.6162970000000000 H
  atom_frac 0.2932730000000000 0.9086600000000000 0.6276360000000000 H
  atom_frac 0.0709680000000000 0.3446180000000000 0.6236290000000000 H
  atom_frac 0.3949360000000000 0.0695670000000000 0.6199330000000000 H
  atom_frac 0.7429240000000000 0.7864060000000000 0.6459230000000000 H
  atom_frac 0.8934710000000000 0.7630950000000000 0.6787790000000000 H
  atom_frac 0.3907280000000000 0.2623290000000000 0.6491530000000000 H
  atom_frac 0.7943519999999999 0.4086650000000000 0.6345970000000000 H
  atom_frac 0.8403170000000000 0.1402140000000000 0.6674280000000000 H
  atom_frac 0.3395690000000000 0.6402190000000000 0.6604790000000000 H
  atom_frac 0.5727280000000000 0.8448980000000000 0.6386150000000000 H
  atom_frac 0.0627630000000000 0.7043270000000000 0.6714470000000000 H
  atom_frac 0.5611310000000000 0.2039560000000000 0.6564370000000000 H
  atom_frac 0.8973240000000001 0.5704160000000001 0.6422510000000000 H
  atom_frac 0.7387850000000000 0.9793570000000000 0.6751430000000000 H
  atom_frac 0.2363590000000000 0.4783590000000000 0.6528360000000000 H
  atom_frac 0.2470510000000000 0.2883230000000000 0.6818760000000000 H
  atom_frac 0.3000540000000000 0.9111540000000000 0.6932150000000000 H
  atom_frac 0.0777500000000000 0.3471120000000000 0.6892080000000000 H
  atom_frac 0.4017170000000000 0.0720620000000000 0.6855120000000000 H
  atom_frac 0.7497040000000000 0.7889000000000000 0.7114900000000000 H
  atom_frac 0.9002510000000000 0.7655890000000000 0.7443460000000000 H
  atom_frac 0.3975080000000000 0.2648220000000000 0.7147200000000000 H
  atom_frac 0.8011330000000000 0.4111590000000000 0.7001640000000000 H
  atom_frac 0.8470980000000000 0.1427070000000000 0.7329950000000000 H
  atom_frac 0.3463490000000000 0.6427130000000000 0.7260460000000000 H
  atom_frac 0.5795080000000000 0.8473920000000000 0.7041830000000000 H
  atom_frac 0.0695430000000000 0.7068200000000000 0.7370139999999999 H
  atom_frac 0.5679110000000001 0.2064490000000000 0.7220040000000000 H
  atom_frac 0.9041040000000000 0.5729100000000000 0.7078190000000000 H
  atom_frac 0.7455650000000001 0.9818510000000000 0.7407100000000000 H
  atom_frac 0.2431390000000000 0.4808520000000000 0.7184040000000000 H
  atom_frac 0.2538320000000000 0.2908170000000000 0.7474430000000000 H
  atom_frac 0.3068340000000000 0.9136480000000000 0.7587820000000000 H
  atom_frac 0.0845300000000000 0.3496060000000000 0.7547750000000000 H
  atom_frac 0.4084980000000000 0.0745550000000000 0.7510790000000001 H
  atom_frac 0.5509510000000000 0.7262130000000000 0.2496020000000000 C
  atom_frac 0.0037260000000000 0.7933220000000000 0.2824340000000000 C
  atom_frac 0.5014080000000000 0.2926240000000000 0.2585730000000000 C
  atom_frac 0.7207060000000000 0.4534080000000000 0.2468510000000000 C
  atom_frac 0.8337010000000000 0.0661570000000000 0.2796830000000000 C
  atom_frac 0.3316750000000001 0.5654600000000000 0.2613470000000000 C
  atom_frac 0.0554070000000000 0.2281800000000000 0.2913440000000000 C
  atom_frac 0.2253910000000000 0.9553350000000000 0.2940830000000000 C
  atom_frac 0.5577309999999999 0.7287069999999999 0.3151690000000000 C
  atom_frac 0.0105060000000000 0.7958150000000001 0.3480010000000000 C
  atom_frac 0.5081890000000000 0.2951180000000000 0.3241400000000000 C
  atom_frac 0.7274870000000000 0.4559020000000000 0.3124190000000000 C
  atom_frac 0.8404820000000000 0.0686510000000000 0.3452500000000000 C
  atom_frac 0.3384560000000000 0.5679530000000000 0.3269150000000000 C
  atom_frac 0.0621870000000000 0.2306740000000000 0.3569110000000000 C
  atom_frac 0.2321710000000000 0.9578280000000000 0.3596500000000000 C
  atom_frac 0.5645120000000000 0.7312010000000001 0.3807480000000000 C
  atom_frac 0.0172870000000000 0.7983090000000000 0.4135800000000001 C
  atom_frac 0.5149700000000000 0.2976120000000000 0.3897190000000000 C
  atom_frac 0.7342680000000000 0.4583960000000000 0.3779980000000000 C
  atom_frac 0.8472630000000000 0.0711450000000000 0.4108289999999999 C
  atom_frac 0.3452370000000000 0.5704470000000000 0.3924940000000000 C
  atom_frac 0.0689690000000000 0.2331680000000000 0.4224899999999999 C
  atom_frac 0.2389520000000000 0.9603220000000000 0.4252290000000000 C
  atom_frac 0.5712930000000001 0.7336940000000000 0.4463160000000000 C
  atom_frac 0.0240680000000000 0.8008029999999999 0.4791470000000000 C
  atom_frac 0.5217500000000000 0.3001060000000000 0.4552860000000000 C
  atom_frac 0.7410480000000000 0.4608900000000000 0.4435650000000000 C
  atom_frac 0.8540430000000000 0.0736380000000000 0.4763960000000000 C
  atom_frac 0.3520170000000000 0.5729410000000000 0.4580610000000000 C
  atom_frac 0.0757490000000000 0.2356620000000000 0.4880580000000000 C
  atom_frac 0.2457320000000000 0.9628160000000000 0.4907960000000000 C
  atom_frac 0.5780740000000000 0.7361880000000000 0.5118950000000000 C
  atom_frac 0.0308490000000000 0.8032970000000001 0.5447260000000000 C
  atom_frac 0.5285320000000000 0.3025999999999999 0.5208650000000000 C
  atom_frac 0.7478300000000000 0.4633840000000000 0.5091440000000000 C
  atom_frac 0.8608250000000000 0.0761320000000000 0.5419750000000000 C
  atom_frac 0.3587990000000000 0.5754350000000000 0.5236400000000000 C
  atom_frac 0.0825300000000000 0.2381560000000000 0.5536370000000000 C
  atom_frac 0.2525140000000000 0.9653100000000000 0.5563760000000000 C
  atom_frac 0.5848540000000000 0.7386819999999999 0.5774620000000000 C
  atom_frac 0.0376290000000000 0.8057910000000000 0.6102930000000000 C
  atom_frac 0.5353120000000000 0.3050930000000000 0.5864320000000000 C
  atom_frac 0.7546100000000000 0.4658780000000000 0.5747110000000000 C
  atom_frac 0.8676050000000001 0.0786260000000000 0.6075420000000000 C
  atom_frac 0.3655790000000000 0.5779290000000000 0.5892070000000000 C
  atom_frac 0.0893110000000000 0.2406500000000000 0.6192040000000000 C
  atom_frac 0.2592940000000000 0.9678040000000000 0.6219430000000000 C
  atom_frac 0.5916360000000001 0.7411759999999999 0.6430410000000000 C
  atom_frac 0.0444110000000000 0.8082850000000000 0.6758720000000000 C
  atom_frac 0.5420929999999999 0.3075869999999999 0.6520110000000000 C
  atom_frac 0.7613910000000000 0.4683720000000000 0.6402900000000000 C
  atom_frac 0.8743860000000000 0.0811200000000000 0.6731210000000000 C
  atom_frac 0.3723600000000001 0.5804230000000000 0.6547860000000000 C
  atom_frac 0.0960920000000000 0.2431440000000000 0.6847830000000000 C
  atom_frac 0.2660750000000000 0.9702980000000000 0.6875220000000000 C
  atom_frac 0.5984159999999999 0.7436700000000001 0.7086080000000000 C
  atom_frac 0.0511910000000000 0.8107790000000000 0.7414390000000000 C
  atom_frac 0.5488730000000002 0.3100810000000001 0.7175780000000000 C
  atom_frac 0.7681709999999999 0.4708650000000000 0.7058570000000000 C
  atom_frac 0.8811660000000000 0.0836140000000000 0.7386880000000000 C
  atom_frac 0.3791400000000000 0.5829170000000000 0.7203530000000000 C
  atom_frac 0.1028720000000000 0.2456370000000000 0.7503500000000000 C
  atom_frac 0.2728550000000000 0.9727920000000000 0.7530890000000000 C
  atom_frac 0.5517919999999999 0.5474640000000000 0.2459420000000000 N
  atom_frac 0.0022650000000000 0.9717810000000000 0.2787500000000000 N
  atom_frac 0.5006380000000000 0.4714240000000000 0.2622440000000000 N
  atom_frac 0.3843390000000000 0.7166630000000000 0.2553910000000000 N
  atom_frac 0.6679210000000000 0.3021040000000000 0.2527960000000000 N
  atom_frac 0.8879120000000000 0.2181420000000000 0.2855910000000000 N
  atom_frac 0.3940510000000000 0.4732210000000000 0.2406080000000000 N
  atom_frac 0.1594910000000000 0.0459580000000000 0.2733920000000000 N
  atom_frac 0.6583700000000000 0.5456370000000000 0.2675790000000000 N
  atom_frac 0.2267700000000000 0.8074270000000000 0.2536570000000000 N
  atom_frac 0.3281990000000000 0.7120240000000000 0.2864280000000000 N
  atom_frac 0.8255100000000000 0.2113600000000000 0.2545300000000000 N
  atom_frac 0.0568280000000000 0.0497110000000000 0.2950280000000000 N
  atom_frac 0.1712500000000000 0.8034000000000000 0.2881750000000000 N
  atom_frac 0.8995710000000000 0.9755239999999999 0.3003740000000000 N
  atom_frac 0.7309430000000000 0.3095080000000000 0.2873370000000000 N
  atom_frac 0.5585730000000000 0.5499570000000000 0.3115100000000000 N
  atom_frac 0.0090450000000000 0.9742749999999999 0.3443170000000000 N
  atom_frac 0.5074180000000000 0.4739170000000000 0.3278120000000000 N
  atom_frac 0.3911200000000000 0.7191570000000000 0.3209580000000000 N
  atom_frac 0.6747010000000000 0.3045980000000000 0.3183630000000000 N
  atom_frac 0.8946930000000000 0.2206350000000000 0.3511580000000000 N
  atom_frac 0.4008310000000000 0.4757150000000000 0.3061750000000000 N
  atom_frac 0.1662710000000000 0.0484510000000000 0.3389590000000000 N
  atom_frac 0.6651500000000000 0.5481300000000000 0.3331460000000000 N
  atom_frac 0.2335500000000000 0.8099210000000000 0.3192240000000000 N
  atom_frac 0.3349790000000000 0.7145170000000000 0.3519960000000000 N
  atom_frac 0.8322909999999999 0.2138540000000000 0.3200970000000000 N
  atom_frac 0.0636080000000000 0.0522040000000000 0.3605950000000000 N
  atom_frac 0.1780300000000000 0.8058940000000000 0.3537420000000000 N
  atom_frac 0.9063510000000000 0.9780180000000001 0.3659410000000000 N
  atom_frac 0.7377230000000000 0.3120020000000000 0.3529050000000000 N
  atom_frac 0.5653540000000000 0.5524520000000001 0.3770890000000000 N
  atom_frac 0.0158270000000000 0.9767690000000001 0.4098960000000000 N
  atom_frac 0.5142000000000000 0.4764120000000000 0.3933910000000000 N
  atom_frac 0.3979009999999999 0.7216510000000000 0.3865370000000000 N
  atom_frac 0.6814829999999999 0.3070920000000000 0.3839420000000001 N
  atom_frac 0.9014740000000000 0.2231290000000000 0.4167370000000000 N
  atom_frac 0.4076120000000000 0.4782090000000000 0.3717540000000000 N
  atom_frac 0.1730520000000000 0.0509450000000000 0.4045380000000000 N
  atom_frac 0.6719309999999999 0.5506240000000000 0.3987250000000000 N
  atom_frac 0.2403320000000000 0.8124150000000000 0.3848030000000000 N
  atom_frac 0.3417610000000000 0.7170110000000000 0.4175750000000000 N
  atom_frac 0.8390720000000000 0.2163480000000000 0.3856760000000000 N
  atom_frac 0.0703900000000000 0.0546980000000000 0.4261740000000000 N
  atom_frac 0.1848110000000000 0.8083880000000000 0.4193210000000001 N
  atom_frac 0.9131330000000000 0.9805120000000001 0.4315210000000000 N
  atom_frac 0.7445050000000000 0.3144960000000000 0.4184840000000000 N
  atom_frac 0.5721340000000000 0.5549450000000000 0.4426560000000000 N
  atom_frac 0.0226070000000000 0.9792630000000000 0.4754630000000000 N
  atom_frac 0.5209800000000000 0.4789050000000000 0.4589580000000000 N
  atom_frac 0.4046810000000000 0.7241450000000000 0.4521040000000000 N
  atom_frac 0.6882630000000001 0.3095859999999999 0.4495090000000000 N
  atom_frac 0.9082540000000000 0.2256230000000000 0.4823050000000000 N
  atom_frac 0.4143930000000000 0.4807020000000000 0.4373210000000000 N
  atom_frac 0.1798330000000000 0.0534390000000000 0.4701050000000001 N
  atom_frac 0.6787119999999999 0.5531180000000000 0.4642920000000000 N
  atom_frac 0.2471120000000000 0.8149090000000000 0.4503700000000000 N
  atom_frac 0.3485410000000000 0.7195050000000000 0.4831420000000000 N
  atom_frac 0.8458520000000000 0.2188420000000000 0.4512430000000000 N
  atom_frac 0.0771700000000000 0.0571920000000000 0.4917409999999999 N
  atom_frac 0.1915910000000000 0.8108810000000000 0.4848880000000000 N
  atom_frac 0.9199130000000000 0.9830050000000000 0.4970880000000000 N
  atom_frac 0.7512850000000000 0.3169900000000000 0.4840510000000000 N
  atom_frac 0.5789160000000000 0.5574389999999999 0.5082350000000000 N
  atom_frac 0.0293880000000000 0.9817570000000000 0.5410420000000000 N
  atom_frac 0.5277610000000000 0.4813990000000000 0.5245370000000000 N
  atom_frac 0.4114630000000000 0.7266390000000000 0.5176840000000000 N
  atom_frac 0.6950440000000000 0.3120800000000000 0.5150880000000000 N
  atom_frac 0.9150360000000000 0.2281170000000000 0.5478840000000000 N
  atom_frac 0.4211740000000000 0.4831960000000000 0.5029000000000000 N
  atom_frac 0.1866140000000000 0.0559330000000000 0.5356840000000000 N
  atom_frac 0.6854930000000000 0.5556120000000000 0.5298710000000000 N
  atom_frac 0.2538930000000000 0.8174030000000000 0.5159490000000000 N
  atom_frac 0.3553220000000000 0.7219989999999999 0.5487210000000000 N
  atom_frac 0.8526339999999999 0.2213360000000000 0.5168220000000000 N
  atom_frac 0.0839510000000000 0.0596860000000000 0.5573200000000000 N
  atom_frac 0.1983730000000000 0.8133749999999998 0.5504670000000000 N
  atom_frac 0.9266940000000001 0.9854990000000000 0.5626670000000000 N
  atom_frac 0.7580660000000000 0.3194839999999999 0.5496300000000000 N
  atom_frac 0.5856960000000000 0.5599330000000001 0.5738020000000000 N
  atom_frac 0.0361680000000000 0.9842510000000000 0.6066090000000000 N
  atom_frac 0.5345410000000000 0.4838930000000000 0.5901040000000000 N
  atom_frac 0.4182430000000000 0.7291320000000000 0.5832510000000000 N
  atom_frac 0.7018240000000001 0.3145740000000001 0.5806550000000000 N
  atom_frac 0.9218160000000001 0.2306110000000000 0.6134510000000000 N
  atom_frac 0.4279540000000000 0.4856900000000001 0.5684680000000000 N
  atom_frac 0.1933940000000000 0.0584270000000000 0.6012510000000000 N
  atom_frac 0.6922730000000000 0.5581060000000000 0.5954380000000000 N
  atom_frac 0.2606730000000000 0.8198960000000000 0.5815160000000000 N
  atom_frac 0.3621020000000000 0.7244930000000001 0.6142879999999999 N
  atom_frac 0.8594140000000000 0.2238300000000000 0.5823890000000000 N
  atom_frac 0.0907320000000000 0.0621800000000000 0.6228870000000000 N
  atom_frac 0.2051530000000000 0.8158690000000001 0.6160340000000000 N
  atom_frac 0.9334740000000000 0.9879930000000000 0.6282340000000000 N
  atom_frac 0.7648460000000000 0.3219770000000000 0.6151970000000000 N
  atom_frac 0.5924770000000000 0.5624270000000000 0.6393810000000000 N
  atom_frac 0.0429500000000000 0.9867450000000000 0.6721880000000000 N
  atom_frac 0.5413230000000000 0.4863870000000000 0.6556830000000000 N
  atom_frac 0.4250240000000000 0.7316260000000000 0.6488300000000000 N
  atom_frac 0.7086059999999998 0.3170680000000000 0.6462340000000000 N
  atom_frac 0.9285970000000000 0.2331050000000000 0.6790300000000000 N
  atom_frac 0.4347350000000000 0.4881840000000000 0.6340470000000000 N
  atom_frac 0.2001760000000000 0.0609210000000000 0.6668300000000000 N
  atom_frac 0.6990540000000001 0.5606000000000000 0.6610170000000000 N
  atom_frac 0.2674550000000000 0.8223900000000000 0.6470950000000000 N
  atom_frac 0.3688840000000000 0.7269870000000000 0.6798670000000000 N
  atom_frac 0.8661950000000000 0.2263240000000000 0.6479690000000000 N
  atom_frac 0.0975130000000000 0.0646740000000000 0.6884670000000001 N
  atom_frac 0.2119340000000000 0.8183630000000000 0.6816130000000000 N
  atom_frac 0.9402560000000000 0.9904870000000000 0.6938130000000000 N
  atom_frac 0.7716280000000000 0.3244710000000000 0.6807760000000000 N
  atom_frac 0.5992570000000000 0.5649210000000000 0.7049480000000000 N
  atom_frac 0.0497300000000000 0.9892380000000000 0.7377560000000000 N
  atom_frac 0.5481030000000000 0.4888810000000000 0.7212499999999999 N
  atom_frac 0.4318040000000000 0.7341200000000000 0.7143969999999999 N
  atom_frac 0.7153860000000000 0.3195610000000000 0.7118010000000000 N
  atom_frac 0.9353770000000000 0.2355990000000000 0.7445970000000000 N
  atom_frac 0.4415160000000000 0.4906780000000000 0.6996140000000000 N
  atom_frac 0.2069560000000000 0.0634150000000000 0.7323970000000000 N
  atom_frac 0.7058350000000000 0.5630940000000000 0.7265840000000000 N
  atom_frac 0.2742350000000000 0.8248840000000000 0.7126630000000000 N
  atom_frac 0.3756640000000000 0.7294800000000000 0.7454340000000000 N
  atom_frac 0.8729749999999999 0.2288170000000000 0.7135359999999999 N
  atom_frac 0.1042930000000000 0.0671680000000000 0.7540340000000000 N
  atom_frac 0.2187140000000000 0.8208569999999999 0.7471800000000000 N
  atom_frac 0.9470360000000000 0.9929810000000000 0.7593800000000001 N
  atom_frac 0.7784080000000000 0.3269650000000000 0.7463430000000000 N
  atom_frac 0.2624250000000000 0.5663610000000000 0.2392920000000000 O
  atom_frac 0.2913050000000000 0.9530080000000000 0.2720760000000000 O
  atom_frac 0.7899850000000000 0.4524860000000000 0.2688830000000000 O
  atom_frac 0.3972810000000001 0.3194280000000000 0.2379050000000000 O
  atom_frac 0.1556400000000000 0.1995140000000000 0.2706770000000000 O
  atom_frac 0.6551709999999999 0.6994300000000000 0.2702940000000000 O
  atom_frac 0.2624230000000000 0.9362940000000000 0.2488490000000000 O
  atom_frac 0.2914860000000000 0.5826020000000000 0.2816560000000000 O
  atom_frac 0.7898060000000000 0.0824430000000000 0.2593260000000000 O
  atom_frac 0.0621050000000000 0.7541490000000000 0.2573770000000000 O
  atom_frac 0.9902069999999999 0.2646690000000000 0.2508220000000000 O
  atom_frac 0.5656930000000000 0.2561780000000000 0.2836660000000000 O
  atom_frac 0.7677570000000000 0.0684840000000000 0.3016900000000000 O
  atom_frac 0.9033620000000000 0.8219470000000000 0.3030890000000000 O
  atom_frac 0.7676780000000000 0.4389400000000000 0.2921220000000000 O
  atom_frac 0.4934390000000000 0.7653329999999999 0.2901000000000000 O
  atom_frac 0.2692050000000000 0.5688540000000000 0.3048600000000000 O
  atom_frac 0.2980850000000000 0.9555010000000000 0.3376430000000000 O
  atom_frac 0.7967649999999999 0.4549800000000000 0.3344500000000000 O
  atom_frac 0.4040610000000000 0.3219220000000000 0.3034720000000000 O
  atom_frac 0.1624200000000000 0.2020080000000000 0.3362440000000000 O
  atom_frac 0.6619510000000000 0.7019240000000000 0.3358610000000000 O
  atom_frac 0.2692030000000000 0.9387880000000000 0.3144160000000000 O
  atom_frac 0.2982660000000000 0.5850959999999999 0.3472230000000000 O
  atom_frac 0.7965869999999999 0.0849360000000000 0.3248930000000000 O
  atom_frac 0.0688850000000000 0.7566420000000000 0.3229440000000000 O
  atom_frac 0.9969870000000001 0.2671630000000000 0.3163890000000000 O
  atom_frac 0.5724730000000000 0.2586720000000000 0.3492330000000000 O
  atom_frac 0.7745370000000000 0.0709780000000000 0.3672570000000000 O
  atom_frac 0.9101420000000001 0.8244410000000000 0.3686560000000000 O
  atom_frac 0.7744579999999999 0.4414340000000000 0.3576890000000000 O
  atom_frac 0.5002190000000000 0.7678270000000001 0.3556670000000000 O
  atom_frac 0.2759860000000000 0.5713490000000000 0.3704390000000000 O
  atom_frac 0.3048660000000000 0.9579950000000000 0.4032220000000001 O
  atom_frac 0.8035460000000000 0.4574740000000000 0.4000290000000000 O
  atom_frac 0.4108430000000000 0.3244160000000000 0.3690510000000000 O
  atom_frac 0.1692020000000000 0.2045020000000000 0.4018230000000000 O
  atom_frac 0.6687320000000001 0.7044180000000000 0.4014400000000000 O
  atom_frac 0.2759850000000000 0.9412820000000000 0.3799950000000000 O
  atom_frac 0.3050470000000000 0.5875899999999999 0.4128020000000000 O
  atom_frac 0.8033680000000000 0.0874310000000000 0.3904720000000000 O
  atom_frac 0.0756660000000000 0.7591360000000000 0.3885230000000000 O
  atom_frac 0.0037690000000000 0.2696570000000000 0.3819680000000000 O
  atom_frac 0.5792550000000000 0.2611660000000000 0.4148120000000000 O
  atom_frac 0.7813190000000000 0.0734720000000000 0.4328360000000000 O
  atom_frac 0.9169230000000000 0.8269350000000000 0.4342360000000000 O
  atom_frac 0.7812390000000000 0.4439280000000000 0.4232680000000000 O
  atom_frac 0.5070000000000000 0.7703210000000000 0.4212470000000000 O
  atom_frac 0.2827660000000000 0.5738420000000000 0.4360059999999999 O
  atom_frac 0.3116470000000000 0.9604890000000000 0.4687890000000000 O
  atom_frac 0.8103260000000000 0.4599680000000000 0.4655960000000000 O
  atom_frac 0.4176230000000000 0.3269090000000000 0.4346180000000000 O
  atom_frac 0.1759820000000000 0.2069960000000000 0.4673900000000000 O
  atom_frac 0.6755120000000000 0.7069110000000000 0.4670070000000000 O
  atom_frac 0.2827650000000000 0.9437759999999999 0.4455620000000001 O
  atom_frac 0.3118270000000000 0.5900830000000000 0.4783700000000000 O
  atom_frac 0.8101480000000000 0.0899240000000000 0.4560390000000000 O
  atom_frac 0.0824470000000000 0.7616300000000000 0.4540899999999999 O
  atom_frac 0.0105490000000000 0.2721510000000000 0.4475359999999999 O
  atom_frac 0.5860350000000000 0.2636600000000000 0.4803790000000000 O
  atom_frac 0.7880990000000000 0.0759650000000000 0.4984030000000000 O
  atom_frac 0.9237040000000000 0.8294290000000000 0.4998030000000000 O
  atom_frac 0.7880190000000000 0.4464210000000000 0.4888350000000000 O
  atom_frac 0.5137800000000000 0.7728150000000000 0.4868140000000000 O
  atom_frac 0.2895480000000000 0.5763360000000000 0.5015849999999999 O
  atom_frac 0.3184280000000000 0.9629830000000000 0.5343680000000000 O
  atom_frac 0.8171079999999999 0.4624620000000000 0.5311750000000000 O
  atom_frac 0.4244040000000000 0.3294039999999999 0.5001970000000000 O
  atom_frac 0.1827630000000000 0.2094900000000000 0.5329690000000000 O
  atom_frac 0.6822940000000000 0.7094050000000000 0.5325860000000000 O
  atom_frac 0.2895460000000000 0.9462699999999999 0.5111410000000000 O
  atom_frac 0.3186090000000000 0.5925780000000000 0.5439490000000000 O
  atom_frac 0.8169300000000000 0.0924180000000000 0.5216180000000000 O
  atom_frac 0.0892280000000000 0.7641239999999999 0.5196690000000000 O
  atom_frac 0.0173300000000000 0.2746450000000000 0.5131150000000000 O
  atom_frac 0.5928160000000000 0.2661540000000000 0.5459580000000001 O
  atom_frac 0.7948800000000000 0.0784590000000000 0.5639820000000000 O
  atom_frac 0.9304849999999999 0.8319230000000000 0.5653820000000001 O
  atom_frac 0.7948009999999999 0.4489160000000000 0.5544140000000000 O
  atom_frac 0.5205620000000000 0.7753090000000000 0.5523930000000000 O
  atom_frac 0.2963280000000000 0.5788300000000000 0.5671520000000000 O
  atom_frac 0.3252080000000000 0.9654770000000000 0.5999350000000000 O
  atom_frac 0.8238879999999998 0.4649550000000000 0.5967420000000000 O
  atom_frac 0.4311850000000000 0.3318970000000000 0.5657640000000000 O
  atom_frac 0.1895430000000000 0.2119840000000000 0.5985360000000000 O
  atom_frac 0.6890740000000000 0.7118989999999999 0.5981530000000000 O
  atom_frac 0.2963260000000000 0.9487630000000000 0.5767080000000000 O
  atom_frac 0.3253889999999999 0.5950710000000000 0.6095159999999999 O
  atom_frac 0.8237100000000001 0.0949120000000000 0.5871860000000000 O
  atom_frac 0.0960080000000000 0.7666180000000001 0.5852360000000000 O
  atom_frac 0.0241100000000000 0.2771390000000000 0.5786820000000000 O
  atom_frac 0.5995970000000000 0.2686480000000000 0.6115250000000000 O
  atom_frac 0.8016600000000002 0.0809530000000000 0.6295490000000000 O
  atom_frac 0.9372650000000000 0.8344160000000000 0.6309490000000000 O
  atom_frac 0.8015810000000000 0.4514090000000000 0.6199810000000000 O
  atom_frac 0.5273420000000000 0.7778020000000000 0.6179600000000000 O
  atom_frac 0.3031090000000000 0.5813240000000000 0.6327310000000000 O
  atom_frac 0.3319900000000000 0.9679710000000000 0.6655140000000000 O
  atom_frac 0.8306690000000000 0.4674500000000000 0.6623210000000000 O
  atom_frac 0.4379660000000000 0.3343909999999999 0.6313440000000000 O
  atom_frac 0.1963250000000000 0.2144780000000000 0.6641150000000000 O
  atom_frac 0.6958550000000000 0.7143929999999999 0.6637320000000000 O
  atom_frac 0.3031080000000000 0.9512580000000000 0.6422870000000001 O
  atom_frac 0.3321700000000000 0.5975650000000000 0.6750950000000000 O
  atom_frac 0.8304910000000000 0.0974060000000000 0.6527650000000000 O
  atom_frac 0.1027890000000000 0.7691120000000000 0.6508150000000000 O
  atom_frac 0.0308920000000000 0.2796330000000000 0.6442610000000000 O
  atom_frac 0.6063780000000000 0.2711420000000000 0.6771040000000000 O
  atom_frac 0.8084420000000000 0.0834470000000000 0.6951290000000000 O
  atom_frac 0.9440470000000000 0.8369100000000000 0.6965280000000000 O
  atom_frac 0.8083620000000000 0.4539030000000000 0.6855599999999999 O
  atom_frac 0.5341230000000000 0.7802960000000000 0.6835390000000000 O
  atom_frac 0.3098900000000000 0.5838179999999999 0.6982980000000000 O
  atom_frac 0.3387700000000000 0.9704650000000000 0.7310820000000000 O
  atom_frac 0.8374490000000000 0.4699430000000000 0.7278880000000000 O
  atom_frac 0.4447460000000000 0.3368850000000000 0.6969109999999999 O
  atom_frac 0.2031050000000000 0.2169710000000000 0.7296820000000001 O
  atom_frac 0.7026350000000000 0.7168870000000001 0.7292990000000000 O
  atom_frac 0.3098880000000000 0.9537510000000001 0.7078540000000000 O
  atom_frac 0.3389499999999999 0.6000590000000000 0.7406620000000000 O
  atom_frac 0.8372710000000000 0.0999000000000000 0.7183320000000000 O
  atom_frac 0.1095700000000000 0.7716060000000000 0.7163820000000000 O
  atom_frac 0.0376720000000000 0.2821260000000000 0.7098280000000000 O
  atom_frac 0.6131580000000000 0.2736350000000000 0.7426710000000000 O
  atom_frac 0.8152220000000000 0.0859410000000000 0.7606960000000000 O
  atom_frac 0.9508270000000000 0.8394040000000000 0.7620950000000001 O
  atom_frac 0.8151430000000001 0.4563970000000000 0.7511270000000000 O
  atom_frac 0.5409040000000001 0.7827900000000000 0.7491060000000000 O
  
  -----------------------------------------------------------------------
  Completed first pass over input file geometry.in .
  -----------------------------------------------------------------------
  

  Basic array size parameters:
  | Number of species                 :        4
  | Number of atoms                   :      448
  | Number of lattice vectors         :        3
  | Max. basis fn. angular momentum   :        2
  | Max. atomic/ionic basis occupied n:        2
  | Max. number of basis fn. types    :        2
  | Max. radial fns per species/type  :        3
  | Max. logarithmic grid size        :     1301
  | Max. radial integration grid size :       36
  | Max. angular integration grid size:      302
  | Max. angular grid division number :        8
  | Radial grid for Hartree potential :     1301
  | Number of spin channels           :        1

------------------------------------------------------------
          Reading file control.in.
------------------------------------------------------------
  XC: Using PBE gradient-corrected functionals.
  Spin treatment: No spin polarisation.
  Scalar relativistic treatment of kinetic energy: on-site free-atom approximation to ZORA.
  Charge =   0.000000E+00: Neutral system requested explicitly.
  Occupation type: Gaussian broadening, width =   0.100000E-01 eV.
  Using pulay charge density mixing.
  Pulay mixing - number of memorized iterations:    8
  Charge density mixing - mixing parameter:     0.0200
  Convergence accuracy of self-consistent charge density:  0.1000E-03
  Convergence accuracy of sum of eigenvalues:  0.1000E-01
  Convergence accuracy of total energy:  0.1000E-05
  Maximum number of s.-c. iterations  : 10000
  Kohn-Sham electronic structure solved by the ELSI library.
  Number of empty states per atom:        6
  Threshold for basis singularities:  0.1000E-04
  Found k-point grid:         4         4         1
  Using dipole correction.
 
  Reading configuration options for species H                   .
  | Found nuclear charge :   1.0000
  | Found atomic mass :    1.00794000000000      amu
  | Found l_max for Hartree potential  :   4
  | Found cutoff potl. onset [A], width [A], scale factor :    3.50000    1.50000    1.00000
  | Threshold for basis-dependent cutoff potential is   0.100000E-03
  | Found data for basic radial integration grid :    24 points, outermost radius =    5.000 A
  | Found multiplier for basic radial grid :   1
  | Found angular grid specification: user-specified.
  | Specified grid contains     5 separate shells.
  | Check grid settings after all constraints further below.
  | Found free-atom valence shell :  1 s   1.000
  | No ionic wave fns used. Skipping ion_occ.
  | Found hydrogenic basis function :  2 s   2.100
  | Found hydrogenic basis function :  2 p   3.500
  Species H                   : Missing cutoff potential type.
  Defaulting to exp(1/x)/(1-x)^2 type cutoff potential.
  Species H : No 'logarithmic' tag. Using default grid for free atom:
  | Default logarithmic grid data [bohr] : 0.1000E-03 0.1000E+03 0.1012E+01
  Species H : On-site basis accuracy parameter (for Gram-Schmidt orthonormalisation) not specified.
  Using default value basis_acc =  0.1000000E-03.
  Species H                   : Using default innermost maximum threshold i_radial=  2 for radial functions.
  Species H                   : Default cutoff onset for free atom density etc. : 0.35000000E+01 AA.
  Species H                   : Basic radial grid will be enhanced according to radial_multiplier =   1, to contain    24 grid points.
 
  Reading configuration options for species C                   .
  | Found nuclear charge :   6.0000
  | Found atomic mass :    12.0107000000000      amu
  | Found l_max for Hartree potential  :   4
  | Found cutoff potl. onset [A], width [A], scale factor :    3.50000    1.50000    1.00000
  | Threshold for basis-dependent cutoff potential is   0.100000E-03
  | Found data for basic radial integration grid :    34 points, outermost radius =    5.000 A
  | Found multiplier for basic radial grid :   1
  | Found angular grid specification: user-specified.
  | Specified grid contains     5 separate shells.
  | Check grid settings after all constraints further below.
  | Found free-atom valence shell :  2 s   2.000
  | Found free-atom valence shell :  2 p   2.000
  | No ionic wave fns used. Skipping ion_occ.
  | No ionic wave fns used. Skipping ion_occ.
  | Found hydrogenic basis function :  2 p   1.700
  | Found hydrogenic basis function :  3 d   6.000
  | Found hydrogenic basis function :  2 s   4.900
  Species C                   : Missing cutoff potential type.
  Defaulting to exp(1/x)/(1-x)^2 type cutoff potential.
  Species C : No 'logarithmic' tag. Using default grid for free atom:
  | Default logarithmic grid data [bohr] : 0.1000E-03 0.1000E+03 0.1012E+01
  Species C : On-site basis accuracy parameter (for Gram-Schmidt orthonormalisation) not specified.
  Using default value basis_acc =  0.1000000E-03.
  Species C                   : Using default innermost maximum threshold i_radial=  2 for radial functions.
  Species C                   : Default cutoff onset for free atom density etc. : 0.35000000E+01 AA.
  Species C                   : Basic radial grid will be enhanced according to radial_multiplier =   1, to contain    34 grid points.
 
  Reading configuration options for species N                   .
  | Found nuclear charge :   7.0000
  | Found atomic mass :    14.0067000000000      amu
  | Found l_max for Hartree potential  :   4
  | Found cutoff potl. onset [A], width [A], scale factor :    3.50000    1.50000    1.00000
  | Threshold for basis-dependent cutoff potential is   0.100000E-03
  | Found data for basic radial integration grid :    35 points, outermost radius =    5.000 A
  | Found multiplier for basic radial grid :   1
  | Found angular grid specification: user-specified.
  | Specified grid contains     5 separate shells.
  | Check grid settings after all constraints further below.
  | Found free-atom valence shell :  2 s   2.000
  | Found free-atom valence shell :  2 p   3.000
  | No ionic wave fns used. Skipping ion_occ.
  | No ionic wave fns used. Skipping ion_occ.
  | Found hydrogenic basis function :  2 p   1.800
  | Found hydrogenic basis function :  3 d   6.800
  | Found hydrogenic basis function :  3 s   5.800
  Species N                   : Missing cutoff potential type.
  Defaulting to exp(1/x)/(1-x)^2 type cutoff potential.
  Species N : No 'logarithmic' tag. Using default grid for free atom:
  | Default logarithmic grid data [bohr] : 0.1000E-03 0.1000E+03 0.1012E+01
  Species N : On-site basis accuracy parameter (for Gram-Schmidt orthonormalisation) not specified.
  Using default value basis_acc =  0.1000000E-03.
  Species N                   : Using default innermost maximum threshold i_radial=  2 for radial functions.
  Species N                   : Default cutoff onset for free atom density etc. : 0.35000000E+01 AA.
  Species N                   : Basic radial grid will be enhanced according to radial_multiplier =   1, to contain    35 grid points.
 
  Reading configuration options for species O                   .
  | Found nuclear charge :   8.0000
  | Found atomic mass :    15.9994000000000      amu
  | Found l_max for Hartree potential  :   4
  | Found cutoff potl. onset [A], width [A], scale factor :    3.50000    1.50000    1.00000
  | Threshold for basis-dependent cutoff potential is   0.100000E-03
  | Found data for basic radial integration grid :    36 points, outermost radius =    5.000 A
  | Found multiplier for basic radial grid :   1
  | Found angular grid specification: user-specified.
  | Specified grid contains     5 separate shells.
  | Check grid settings after all constraints further below.
  | Found free-atom valence shell :  2 s   2.000
  | Found free-atom valence shell :  2 p   4.000
  | No ionic wave fns used. Skipping ion_occ.
  | No ionic wave fns used. Skipping ion_occ.
  | Found hydrogenic basis function :  2 p   1.800
  | Found hydrogenic basis function :  3 d   7.600
  | Found hydrogenic basis function :  3 s   6.400
  Species O                   : Missing cutoff potential type.
  Defaulting to exp(1/x)/(1-x)^2 type cutoff potential.
  Species O : No 'logarithmic' tag. Using default grid for free atom:
  | Default logarithmic grid data [bohr] : 0.1000E-03 0.1000E+03 0.1012E+01
  Species O : On-site basis accuracy parameter (for Gram-Schmidt orthonormalisation) not specified.
  Using default value basis_acc =  0.1000000E-03.
  Species O                   : Using default innermost maximum threshold i_radial=  2 for radial functions.
  Species O                   : Default cutoff onset for free atom density etc. : 0.35000000E+01 AA.
  Species O                   : Basic radial grid will be enhanced according to radial_multiplier =   1, to contain    36 grid points.
 
  Finished reading input file 'control.in'. Consistency checks are next.
 
  MPI_IN_PLACE appears to work with this MPI implementation.
  | Keeping use_mpi_in_place .true. (see manual).
  Target number of points in a grid batch is not set. Defaulting to  100
  Method for grid partitioning is not set. Defaulting to parallel hash+maxmin partitioning.
  Batch size limit is not set. Defaulting to    200
  By default, will store active basis functions for each batch.
  If in need of memory, prune_basis_once .false. can be used to disable this option.
  communication_type for Hartree potential was not specified.
  Defaulting to calc_hartree .
  Pulay mixer: Number of initial linear mixing iterations not set.
  Defaulting to    0 iterations.
  Work space size for distributed Hartree potential not set.
  Defaulting to   0.200000E+03 MB.
  Algorithm-dependent basis array size parameters:
  | n_max_pulay                         :        8
  Presetting      1001 iterations before the initial mixing cycle
  is restarted anyway using the sc_init_iter criterion / keyword.
  Presetting a factor      1.000 between actual scf density residual
  and density convergence criterion sc_accuracy_rho below which sc_init_iter
  takes no effect.
  Calculation of forces was not defined in control.in. No forces will be calculated.
  Geometry relaxation not requested: no relaxation will be performed.
  No accuracy limit for integral partition fn. given. Defaulting to  0.1000E-14.
  No threshold value for u(r) in integrations given. Defaulting to  0.1000E-05.
  No accuracy for occupation numbers given. Defaulting to  0.1000E-12.
  No threshold value for occupation numbers given. Defaulting to  0.0000E+00.
  No accuracy for fermi level given. Defaulting to  0.1000E-19.
  Maximum # of iterations to find E_F not set. Defaulting to  200.
  Maximum number of tasks per SMP nodenot specified.
  Presetting   512 tasks.
  Will not use alltoall communication since running on < 1024 CPUs.
  partition_type (choice of integration weights) for integrals was not specified.
  | Using a version of the partition function of Stratmann and coworkers ('stratmann_smoother').
  | At each grid point, the set of atoms used to build the partition table is smoothly restricted to
  | only those atoms whose free-atom density would be non-zero at that grid point.
  Partitioning for Hartree potential was not defined. Using partition_type for integrals.
  | Adjusted default value of keyword multip_moments_threshold to:       0.10000000E-11
  | This value may affect high angular momentum components of the Hartree potential in periodic systems.
  Angular momentum expansion for Kerker preconditioner not set explicitly.
  | Using default value of   0
  No explicit requirement for turning off preconditioner.
  | By default, it will be turned off when the charge convergence reaches
  | sc_accuracy_rho  =   0.100000E-03
  | sc_accuracy_eev  =   0.100000E-01
  | sc_accuracy_etot =   0.100000E-05
  No special mixing parameter while Kerker preconditioner is on.
  Using default: charge_mix_param =     0.0200.
  No q(lm)/r^(l+1) cutoff set for long-range Hartree potential.
  | Using default value of  0.100000E-09 .
  | Verify using the multipole_threshold keyword.
  Defaulting to new monopole extrapolation.
  Density update method: automatic selection selected.
  Using density matrix based charge density update.
  Using density matrix based charge density update.
  Using packed matrix style: index .
  Defaulting to use time-reversal symmetry for k-point grid.
  Using the following vdw_convergence_threshold for supercell sums
  over the Tkatchenko-Scheffler correction:  0.448000E-05 eV.
------------------------------------------------------------


------------------------------------------------------------
          Reading geometry description geometry.in.
------------------------------------------------------------
  Input structure read successfully.
  The structure contains      448 atoms,  and a total of       2432.000 electrons.

  Input geometry:
  | Unit cell:
  |        6.59576000        0.00000000        0.00000000
  |       -1.54504400        7.23284900        0.00000000
  |        0.00000000        0.00000000      168.13433300
  | Atomic structure:
  |       Atom                x [A]            y [A]            z [A]
  |    1: Species H             3.43988653        5.57973073       42.45139707
  |    2: Species H             4.46887493        5.41112579       47.97545058
  |    3: Species H             1.92660981        1.78915369       42.99430283
  |    4: Species H             4.36272633        2.84758712       40.54693948
  |    5: Species H             5.08067060        0.90591434       46.06712590
  |    6: Species H             1.00531910        4.52238223       44.89876042
  |    7: Species H             2.22694185        6.00279453       41.22267136
  |    8: Species H            -0.91947498        4.98605849       46.74268965
  |    9: Species H             3.14073595        1.36695060       44.21899331
  |   10: Species H             4.79198593        4.01750768       41.83400780
  |   11: Species H             3.11446889        6.97531618       47.36411414
  |   12: Species H             0.57465308        3.35166606       43.61370971
  |   13: Species H             0.93879398        1.97717160       48.49633074
  |   14: Species H             0.32608115        6.48201418       50.40263781
  |   15: Species H            -0.26871298        2.40238356       49.72909167
  |   16: Species H             2.29306810        0.41298121       49.10766718
  |   17: Species H             3.48075399        5.59776222       53.47546088
  |   18: Species H             4.50974744        5.42916451       58.99951439
  |   19: Species H             1.96747572        1.80719242       54.01836664
  |   20: Species H             4.40359379        2.86561861       51.57100329
  |   21: Species H             5.12153651        0.92395306       57.09118971
  |   22: Species H             1.04618501        4.54042096       55.92282423
  |   23: Species H             2.26780930        6.02082603       52.24673517
  |   24: Species H            -0.87860906        5.00409721       57.76675346
  |   25: Species H             3.18160187        1.38498932       55.24305712
  |   26: Species H             4.83285184        4.03554640       52.85807161
  |   27: Species H             3.15534295        6.99334767       58.38817796
  |   28: Species H             0.61551899        3.36970479       54.63777352
  |   29: Species H             0.97965989        1.99521033       59.52039455
  |   30: Species H             0.36694706        6.50005290       61.42670162
  |   31: Species H            -0.22784552        2.42041506       60.75315548
  |   32: Species H             2.33393401        0.43101994       60.13173099
  |   33: Species H             3.52163309        5.61580095       64.50154230
  |   34: Species H             4.55061995        5.44720324       70.02559581
  |   35: Species H             2.00834823        1.82523114       65.04444806
  |   36: Species H             4.44446476        2.88366457       62.59708471
  |   37: Species H             5.16240902        0.94199179       68.11727113
  |   38: Species H             1.08706412        4.55845969       66.94890565
  |   39: Species H             2.30868841        6.03886475       63.27281660
  |   40: Species H            -0.83772996        5.02213594       68.79300302
  |   41: Species H             3.22248097        1.40302805       66.26913855
  |   42: Species H             4.87373094        4.05358513       63.88415303
  |   43: Species H             3.19621391        7.01139363       69.41425938
  |   44: Species H             0.65639150        3.38774351       65.66385495
  |   45: Species H             1.02053240        2.01324905       70.54647598
  |   46: Species H             0.40782617        6.51809163       72.45295118
  |   47: Species H            -0.18696796        2.43846101       71.77923691
  |   48: Species H             2.37480652        0.44905866       71.15781241
  |   49: Species H             3.56249900        5.63383967       75.52560611
  |   50: Species H             4.59148586        5.46524196       81.04965963
  |   51: Species H             2.04922074        1.84326987       76.06851188
  |   52: Species H             4.48533221        2.90169606       73.62131666
  |   53: Species H             5.20327493        0.96003051       79.14133495
  |   54: Species H             1.12793003        4.57649841       77.97296947
  |   55: Species H             2.34955432        6.05690348       74.29688041
  |   56: Species H            -0.79686405        5.04017466       79.81706683
  |   57: Species H             3.26334688        1.42106677       77.29320236
  |   58: Species H             4.91459840        4.07161662       74.90821684
  |   59: Species H             3.23708137        7.02942512       80.43832319
  |   60: Species H             0.69726401        3.40578224       76.68791876
  |   61: Species H             1.06140645        2.03128055       81.57053979
  |   62: Species H             0.44869208        6.53613035       83.47701499
  |   63: Species H            -0.14610050        2.45649251       82.80330072
  |   64: Species H             2.41567243        0.46709739       82.18187622
  |   65: Species H             3.60337151        5.65187840       86.55168754
  |   66: Species H             4.63236496        5.48328069       92.07574105
  |   67: Species H             2.09009325        1.86130859       87.09459330
  |   68: Species H             4.52621132        2.91973479       84.64739808
  |   69: Species H             5.24415403        0.97806924       90.16741637
  |   70: Species H             1.16880254        4.59453714       88.99905089
  |   71: Species H             2.39042683        6.07494220       85.32296183
  |   72: Species H            -0.75599154        5.05821339       90.84314825
  |   73: Species H             3.30421939        1.43910550       88.31928378
  |   74: Species H             4.95547091        4.08965534       85.93429827
  |   75: Species H             3.27796047        7.04746385       91.46440461
  |   76: Species H             0.73813652        3.42382096       87.71400018
  |   77: Species H             1.10227896        2.04931927       92.59662121
  |   78: Species H             0.48956459        6.55416908       94.50309641
  |   79: Species H            -0.10522799        2.47453123       93.82938214
  |   80: Species H             2.45655154        0.48513611       93.20795765
  |   81: Species H             3.64423743        5.66991713       97.57575135
  |   82: Species H             4.67323242        5.50131218      103.09997300
  |   83: Species H             2.13095916        1.87934732       98.11882525
  |   84: Species H             4.56707723        2.93777351       95.67146189
  |   85: Species H             5.28501995        0.99610796      101.19148018
  |   86: Species H             1.20967000        4.61256863      100.02311470
  |   87: Species H             2.43129934        6.09298093       96.34702564
  |   88: Species H            -0.71511748        5.07624488      101.86721207
  |   89: Species H             3.34508531        1.45714423       99.34334759
  |   90: Species H             4.99634342        4.10769407       96.95836208
  |   91: Species H             3.31882639        7.06550257      102.48863656
  |   92: Species H             0.77900243        3.44185969       98.73806399
  |   93: Species H             1.14314487        2.06735800      103.62068502
  |   94: Species H             0.53043864        6.57220057      105.52716023
  |   95: Species H            -0.06436208        2.49256996      104.85344595
  |   96: Species H             2.49741900        0.50316761      104.23202146
  |   97: Species H             3.68511653        5.68795585      108.60183277
  |   98: Species H             4.71410493        5.51935091      114.12605442
  |   99: Species H             2.17183827        1.89738605      109.14490667
  |  100: Species H             4.60794974        2.95581224      106.69754332
  |  101: Species H             5.32589246        1.01414669      112.21756161
  |  102: Species H             1.25054910        4.63060735      111.04919613
  |  103: Species H             2.47217185        6.11101965      107.37310707
  |  104: Species H            -0.67424652        5.09429084      112.89329349
  |  105: Species H             3.38596441        1.47518295      110.36959715
  |  106: Species H             5.03721593        4.12573280      107.98444350
  |  107: Species H             3.35969889        7.08354130      113.51471798
  |  108: Species H             0.81988154        3.45989841      109.76414542
  |  109: Species H             1.18401738        2.08539672      114.64676645
  |  110: Species H             0.57131115        6.59023930      116.55324165
  |  111: Species H            -0.02348297        2.51060868      115.87952738
  |  112: Species H             2.53828996        0.52121356      115.25810288
  |  113: Species H             3.72598244        5.70599458      119.62589659
  |  114: Species H             4.75497084        5.53738963      125.15011823
  |  115: Species H             2.21270572        1.91541754      120.16897048
  |  116: Species H             4.64882225        2.97385096      117.72160713
  |  117: Species H             5.36676651        1.03217818      123.24162542
  |  118: Species H             1.29141502        4.64864608      122.07325994
  |  119: Species H             2.51303776        6.12905838      118.39733901
  |  120: Species H            -0.63337906        5.11232233      123.91735730
  |  121: Species H             3.42683187        1.49321444      121.39366096
  |  122: Species H             5.07808184        4.14377152      119.00867545
  |  123: Species H             3.40056481        7.10158002      124.53878180
  |  124: Species H             0.86074899        3.47792991      120.78837736
  |  125: Species H             1.22488989        2.10343545      125.67083026
  |  126: Species H             0.61217706        6.60827802      127.57730546
  |  127: Species H             0.01738294        2.52864741      126.90359119
  |  128: Species H             2.57916401        0.53924506      126.28216670
  |  129: Species C             2.51190953        5.25258897       41.96666579
  |  130: Species C            -1.20114159        5.73797823       47.48685221
  |  131: Species C             2.85504987        2.11650521       43.47499889
  |  132: Species C             4.05306850        3.27943160       41.50412824
  |  133: Species C             5.39667623        0.47850359       47.02431466
  |  134: Species C             1.31398812        4.08988680       43.94140353
  |  135: Species C             0.01290313        1.65039148       48.98492911
  |  136: Species C             0.01059033        6.90979380       49.44544905
  |  137: Species C             2.55277544        5.27062770       52.99072960
  |  138: Species C            -1.16027414        5.75600973       58.51091602
  |  139: Species C             2.89592238        2.13454393       54.49906270
  |  140: Species C             4.09394101        3.29747032       52.52836018
  |  141: Species C             5.43754874        0.49654232       58.04837847
  |  142: Species C             1.35486217        4.10791829       54.96563547
  |  143: Species C             0.05376905        1.66843021       60.00899293
  |  144: Species C             0.05145779        6.92782529       60.46951286
  |  145: Species C             2.59364795        5.28866642       64.01681102
  |  146: Species C            -1.11940163        5.77404845       69.53699744
  |  147: Species C             2.93679489        2.15258266       65.52514412
  |  148: Species C             4.13481351        3.31550905       63.55444161
  |  149: Species C             5.47842125        0.51458104       69.07445989
  |  150: Species C             1.39573468        4.12595701       65.99171690
  |  151: Species C             0.09464815        1.68646894       71.03507435
  |  152: Species C             0.09233030        6.94586402       71.49559429
  |  153: Species C             2.63452201        5.30669791       75.04104297
  |  154: Species C            -1.07852912        5.79208718       80.56106125
  |  155: Species C             2.97766081        2.17062138       76.54920793
  |  156: Species C             4.17567943        3.33354778       74.57850542
  |  157: Species C             5.51928871        0.53261253       80.09852370
  |  158: Species C             1.43660059        4.14399574       77.01578071
  |  159: Species C             0.13551407        1.70450766       82.05930630
  |  160: Species C             0.13319621        6.96390274       82.51965810
  |  161: Species C             2.67539451        5.32473664       86.06712439
  |  162: Species C            -1.03765661        5.81012590       91.58714268
  |  163: Species C             3.01853991        2.18866011       87.57528936
  |  164: Species C             4.21655853        3.35158650       85.60458684
  |  165: Species C             5.56016781        0.55065126       91.12460513
  |  166: Species C             1.47747970        4.16203446       88.04186213
  |  167: Species C             0.17638657        1.72254639       93.08538772
  |  168: Species C             0.17407532        6.98194147       93.54590766
  |  169: Species C             2.71626043        5.34277537       97.09118820
  |  170: Species C            -0.99679070        5.82816463      102.61120649
  |  171: Species C             3.05940737        2.20669160       98.59935317
  |  172: Species C             4.25742444        3.36962523       96.62865065
  |  173: Species C             5.60103373        0.56868999      102.14866894
  |  174: Species C             1.51834561        4.18007319       99.06592594
  |  175: Species C             0.21725908        1.74058511      104.10945153
  |  176: Species C             0.21494123        6.99998019      104.56997147
  |  177: Species C             2.75713953        5.36081409      108.11726963
  |  178: Species C            -0.95591159        5.84620335      113.63728791
  |  179: Species C             3.10027988        2.22473033      109.62543459
  |  180: Species C             4.29829695        3.38766395      107.65473208
  |  181: Species C             5.64190623        0.58672871      113.17475036
  |  182: Species C             1.55921812        4.19811192      110.09200737
  |  183: Species C             0.25813159        1.75862384      115.13553295
  |  184: Species C             0.25581374        7.01801892      115.59605289
  |  185: Species C             2.79800544        5.37885282      119.14133344
  |  186: Species C            -0.91504568        5.86424208      124.66135173
  |  187: Species C             3.14114579        2.24276905      120.64949841
  |  188: Species C             4.33916441        3.40569544      118.67879589
  |  189: Species C             5.68277215        0.60476744      124.19881418
  |  190: Species C             1.60008403        4.21615064      121.11607118
  |  191: Species C             0.29899905        1.77665533      126.15959677
  |  192: Species C             0.29667965        7.03605764      126.62011670
  |  193: Species N             2.79363163        3.95972444       41.35129413
  |  194: Species N            -1.48650501        7.02874523       46.86744532
  |  195: Species N             2.57371727        3.40973861       44.09222002
  |  196: Species N             1.42773193        5.18351526       42.93999544
  |  197: Species N             3.93868264        2.18507261       42.50368685
  |  198: Species N             5.51941546        1.57778815       48.01765230
  |  199: Species N             1.86791856        3.42273604       40.45446559
  |  200: Species N             0.98095723        0.33240727       45.96658157
  |  201: Species N             3.49941734        3.94651003       44.98921669
  |  202: Species N             0.24821025        5.83999757       42.64845051
  |  203: Species N             1.06461343        5.14996208       48.15838073
  |  204: Species N             5.11830534        1.52873496       42.79523178
  |  205: Species N             0.29801817        0.35955216       49.60433600
  |  206: Species N            -0.11176445        5.81087089       48.45211141
  |  207: Species N             4.42612692        7.05581779       50.50318214
  |  208: Species N             4.34292112        2.23862463       48.31121484
  |  209: Species N             2.83450569        3.97775594       52.37552607
  |  210: Species N            -1.44563909        7.04678396       57.89150914
  |  211: Species N             2.61458473        3.42777010       55.11645197
  |  212: Species N             1.46860444        5.20155399       53.96405925
  |  213: Species N             3.97954856        2.20311134       53.52775066
  |  214: Species N             5.56028952        1.59581964       59.04171611
  |  215: Species N             1.90878447        3.44077476       51.47852941
  |  216: Species N             1.02182468        0.35043877       56.99064538
  |  217: Species N             3.54028480        3.96454152       56.01328050
  |  218: Species N             0.28907617        5.85803629       53.67251432
  |  219: Species N             1.10548089        5.16799357       59.18261268
  |  220: Species N             5.15917785        1.54677369       53.81929559
  |  221: Species N             0.33888563        0.37758365       60.62839981
  |  222: Species N            -0.07089854        5.82890961       59.47617522
  |  223: Species N             4.46699283        7.07385651       61.52724595
  |  224: Species N             4.38378704        2.25666335       59.33544679
  |  225: Species N             2.87537665        3.99580190       63.40160750
  |  226: Species N            -1.40475999        7.06482268       68.91759056
  |  227: Species N             2.65546229        3.44581606       66.14253339
  |  228: Species N             1.50947695        5.21959271       64.99014067
  |  229: Species N             4.02042766        2.22115007       64.55383208
  |  230: Species N             5.60116203        1.61385836       70.06779753
  |  231: Species N             1.94965698        3.45881349       62.50461083
  |  232: Species N             1.06269719        0.36847749       68.01672680
[...]
  |   Free atom volume        :     23.60491416
  |   Hirshfeld volume        :     21.65298157
  |   Hirshfeld dipole vector :     -0.00696556       0.03315068       0.01136707
  |   Hirshfeld dipole moment :      0.03573090
  |   Hirshfeld second moments:      0.01768213      -0.00013377      -0.01403982
  |                                 -0.00013377       0.06053498       0.01240906
  |                                 -0.01403982       0.01240906       0.04195187
  ----------------------------------------------------------------------
  | Atom   437: O
  |   Hirshfeld charge        :     -0.13996211
  |   Free atom volume        :     23.60491416
  |   Hirshfeld volume        :     21.63861371
  |   Hirshfeld dipole vector :      0.00732778      -0.03284543       0.01086085
  |   Hirshfeld dipole moment :      0.03536208
  |   Hirshfeld second moments:      0.01831832      -0.00020022       0.01413495
  |                                 -0.00020022       0.06092094      -0.01233775
  |                                  0.01413495      -0.01233775       0.04247118
  ----------------------------------------------------------------------
  | Atom   438: O
  |   Hirshfeld charge        :     -0.14118249
  |   Free atom volume        :     23.60491416
  |   Hirshfeld volume        :     21.65620746
  |   Hirshfeld dipole vector :      0.00696729      -0.03319915      -0.01137932
  |   Hirshfeld dipole moment :      0.03578011
  |   Hirshfeld second moments:      0.01740952      -0.00014135      -0.01399585
  |                                 -0.00014135       0.06042884       0.01253456
  |                                 -0.01399585       0.01253456       0.04181194
  ----------------------------------------------------------------------
  | Atom   439: O
  |   Hirshfeld charge        :     -0.15416010
  |   Free atom volume        :     23.60491416
  |   Hirshfeld volume        :     21.86270897
  |   Hirshfeld dipole vector :      0.02022789      -0.03379941       0.02435184
  |   Hirshfeld dipole moment :      0.04630960
  |   Hirshfeld second moments:     -0.00901960       0.00828000       0.00339685
  |                                  0.00828000       0.04896351      -0.00371910
  |                                  0.00339685      -0.00371910       0.05800870
  ----------------------------------------------------------------------
  | Atom   440: O
  |   Hirshfeld charge        :     -0.15432598
  |   Free atom volume        :     23.60491416
  |   Hirshfeld volume        :     21.83221299
  |   Hirshfeld dipole vector :     -0.01950804       0.03408482       0.02423476
  |   Hirshfeld dipole moment :      0.04614826
  |   Hirshfeld second moments:     -0.00886489       0.00820514      -0.00310490
  |                                  0.00820514       0.04938824       0.00349940
  |                                 -0.00310490       0.00349940       0.05930295
  ----------------------------------------------------------------------
  | Atom   441: O
  |   Hirshfeld charge        :     -0.15386232
  |   Free atom volume        :     23.60491416
  |   Hirshfeld volume        :     21.85787407
  |   Hirshfeld dipole vector :     -0.02016402       0.03382771      -0.02446457
  |   Hirshfeld dipole moment :      0.04636180
  |   Hirshfeld second moments:     -0.00874637       0.00824892       0.00338752
  |                                  0.00824892       0.04917467      -0.00350063
  |                                  0.00338752      -0.00350063       0.05812793
  ----------------------------------------------------------------------
  | Atom   442: O
  |   Hirshfeld charge        :     -0.16732790
  |   Free atom volume        :     23.60491416
  |   Hirshfeld volume        :     21.91761820
  |   Hirshfeld dipole vector :      0.04036847      -0.00482812      -0.03000129
  |   Hirshfeld dipole moment :      0.05052723
  |   Hirshfeld second moments:      0.04425513       0.02772044      -0.00884942
  |                                  0.02772044       0.01156728       0.01344408
  |                                 -0.00884942       0.01344408       0.03253692
  ----------------------------------------------------------------------
  | Atom   443: O
  |   Hirshfeld charge        :     -0.16712623
  |   Free atom volume        :     23.60491416
  |   Hirshfeld volume        :     21.91321348
  |   Hirshfeld dipole vector :     -0.04037989       0.00469925       0.02994807
  |   Hirshfeld dipole moment :      0.05049262
  |   Hirshfeld second moments:      0.04443209       0.02766074      -0.00875419
  |                                  0.02766074       0.01170161       0.01351561
  |                                 -0.00875419       0.01351561       0.03271811
  ----------------------------------------------------------------------
  | Atom   444: O
  |   Hirshfeld charge        :     -0.17045063
  |   Free atom volume        :     23.60491416
  |   Hirshfeld volume        :     21.90141045
  |   Hirshfeld dipole vector :      0.04116380      -0.00465147       0.03030542
  |   Hirshfeld dipole moment :      0.05132751
  |   Hirshfeld second moments:      0.04432754       0.02741132       0.00820447
  |                                  0.02741132       0.01061992      -0.01320410
  |                                  0.00820447      -0.01320410       0.03286452
  ----------------------------------------------------------------------
  | Atom   445: O
  |   Hirshfeld charge        :     -0.17888953
  |   Free atom volume        :     23.60491416
  |   Hirshfeld volume        :     22.30640145
  |   Hirshfeld dipole vector :      0.04743715      -0.01916332      -0.02798148
  |   Hirshfeld dipole moment :      0.05831362
  |   Hirshfeld second moments:      0.04351396      -0.01863698       0.01406532
  |                                 -0.01863698       0.00323653       0.02285144
  |                                  0.01406532       0.02285144       0.00168255
  ----------------------------------------------------------------------
  | Atom   446: O
  |   Hirshfeld charge        :     -0.16441067
  |   Free atom volume        :     23.60491416
  |   Hirshfeld volume        :     22.31236993
  |   Hirshfeld dipole vector :      0.00948484       0.04863034      -0.03594347
  |   Hirshfeld dipole moment :      0.06121115
  |   Hirshfeld second moments:     -0.00264075      -0.00374023       0.03035887
  |                                 -0.00374023       0.04378025      -0.00146313
  |                                  0.03035887      -0.00146313       0.01360231
  ----------------------------------------------------------------------
  | Atom   447: O
  |   Hirshfeld charge        :     -0.16029294
  |   Free atom volume        :     23.60491416
  |   Hirshfeld volume        :     22.12457537
  |   Hirshfeld dipole vector :      0.02316662      -0.03266520      -0.03947926
  |   Hirshfeld dipole moment :      0.05623451
  |   Hirshfeld second moments:     -0.01274482       0.01094848       0.00038975
  |                                  0.01094848       0.04701271       0.00171805
  |                                  0.00038975       0.00171805       0.03816210
  ----------------------------------------------------------------------
  | Atom   448: O
  |   Hirshfeld charge        :     -0.16135065
  |   Free atom volume        :     23.60491416
  |   Hirshfeld volume        :     21.87410022
  |   Hirshfeld dipole vector :     -0.04002103       0.00598556      -0.03108085
  |   Hirshfeld dipole moment :      0.05102479
  |   Hirshfeld second moments:      0.04804986       0.03028853       0.00434827
  |                                  0.03028853       0.01296493      -0.01366888
  |                                  0.00434827      -0.01366888       0.03189586
  ----------------------------------------------------------------------

  Converging periodic supercell size for vdw calculation.
  Convergence accuracy (and time!) can be adjusted using the vdw_convergence_threshold keyword.
  | Shell number:     1
  |   VDW energy change:  -0.144781E+02 eV.
  |   Not converged.
  | Shell number:     2
  |   VDW energy change:  -0.333544E+00 eV.
  |   Not converged.
  | Shell number:     3
  |   VDW energy change:  -0.470935E-01 eV.
  |   Not converged.
  | Shell number:     4
  |   VDW energy change:  -0.130412E-01 eV.
  |   Not converged.
  | Shell number:     5
  |   VDW energy change:  -0.491871E-02 eV.
  |   Not converged.
  | Shell number:     6
  |   VDW energy change:  -0.222652E-02 eV.
  |   Not converged.
  | Shell number:     7
  |   VDW energy change:  -0.113873E-02 eV.
  |   Not converged.
  | Shell number:     8
  |   VDW energy change:  -0.636154E-03 eV.
  |   Not converged.
  | Shell number:     9
  |   VDW energy change:  -0.380171E-03 eV.
  |   Not converged.
  | Shell number:    10
  |   VDW energy change:  -0.239692E-03 eV.
  |   Not converged.
  | Shell number:    11
  |   VDW energy change:  -0.157895E-03 eV.
  |   Not converged.
  | Shell number:    12
  |   VDW energy change:  -0.107903E-03 eV.
  |   Not converged.
  | Shell number:    13
  |   VDW energy change:  -0.760827E-04 eV.
  |   Not converged.
  | Shell number:    14
  |   VDW energy change:  -0.551155E-04 eV.
  |   Not converged.
  | Shell number:    15
  |   VDW energy change:  -0.408785E-04 eV.
  |   Not converged.
  | Shell number:    16
  |   VDW energy change:  -0.309535E-04 eV.
  |   Not converged.
  | Shell number:    17
  |   VDW energy change:  -0.238713E-04 eV.
  |   Not converged.
  | Shell number:    18
  |   VDW energy change:  -0.187115E-04 eV.
  |   Not converged.
  | Shell number:    19
  |   VDW energy change:  -0.148813E-04 eV.
  |   Not converged.
  | Shell number:    20
  |   VDW energy change:  -0.119899E-04 eV.
  |   Not converged.
  | Shell number:    21
  |   VDW energy change:  -0.977378E-05 eV.
  |   Not converged.
  | Shell number:    22
  |   VDW energy change:  -0.805152E-05 eV.
  |   Not converged.
  | Shell number:    23
  |   VDW energy change:  -0.669615E-05 eV.
  |   Not converged.
  | Shell number:    24
  |   VDW energy change:  -0.561720E-05 eV.
  |   Not converged.
  | Shell number:    25
  |   VDW energy change:  -0.474924E-05 eV.
  |   Not converged.
  | Shell number:    26
  |   VDW energy change:  -0.404429E-05 eV.
  |   Converged.

  Total energy components:
  | Sum of eigenvalues            :      -10822.35599360 Ha     -294491.29013782 eV
  | XC energy correction          :       -2358.64703980 Ha      -64182.05149987 eV
  | XC potential correction       :        3032.88086980 Ha       82528.88749091 eV
  | Free-atom electrostatic energy:       -8859.86058678 Ha     -241089.07304335 eV
  | Hartree energy correction     :        -145.27667813 Ha       -3953.17954754 eV
  | vdW energy correction         :          -0.99559104 Ha         -27.09141065 eV
  | Entropy correction            :           0.00000000 Ha           0.00000000 eV
  | ---------------------------
  | Total energy                  :      -19154.25501956 Ha     -521213.79814832 eV
  | Total energy, T -> 0          :      -19154.25501956 Ha     -521213.79814832 eV  <-- do not rely on this value for anything but (periodic) metals
  | Electronic free energy        :      -19154.25501956 Ha     -521213.79814832 eV

  Derived energy quantities:
  | Kinetic energy                :       19122.38127473 Ha      520346.46942235 eV
  | Electrostatic energy          :      -35916.99366345 Ha     -977351.12466015 eV
  | Energy correction for multipole
  | error in Hartree potential    :           3.35327772 Ha          91.24732932 eV
  | Sum of eigenvalues per atom                           :        -657.34662977 eV
  | Total energy (T->0) per atom                          :       -1163.42365658 eV  <-- do not rely on this value for anything but (periodic) metals
  | Electronic free energy per atom                       :       -1163.42365658 eV
  Timings for VdW correction (Tkatchenko-Scheffler 2009 or later):
  | CPU time:       72.596 s, Wall clock time:       72.591 s.

  Energy and forces in a compact form:
  | Total energy uncorrected      :         -0.521213798148317E+06 eV
  | Total energy corrected        :         -0.521213798148317E+06 eV  <-- do not rely on this value for anything but (periodic) metals
  | Electronic free energy        :         -0.521213798148317E+06 eV

  ------------------------------------ 
  Start decomposition of the XC Energy 
  ------------------------------------ 
  X and C from original XC functional choice 
  Hartree-Fock Energy :          0.000000000 Ha              0.000000000 eV
  X Energy            :      -2274.326293963 Ha         -61887.567263498 eV
  C Energy            :        -84.320745840 Ha          -2294.484236369 eV
  Total XC Energy     :      -2358.647039803 Ha         -64182.051499867 eV
  ------------------------------------ 
  LDA X and C from self-consistent density 
  X Energy LDA        :      -2068.953823794 Ha         -56299.098012007 eV
  C Energy LDA        :       -164.985998803 Ha          -4489.497450542 eV
  ------------------------------------ 
  End decomposition of the XC Energy 
  ------------------------------------ 

------------------------------------------------------------

------------------------------------------------------------------------------
  Final output of selected total energy values:

  The following output summarizes some interesting total energy values
  at the end of a run (AFTER all relaxation, molecular dynamics, etc.).

  | Total energy of the DFT / Hartree-Fock s.c.f. calculation      :        -521213.798148317 eV
  | Final zero-broadening corrected energy (caution - metals only) :        -521213.798148317 eV
  | For reference only, the value of 1 Hartree used in FHI-aims is :             27.211384500 eV

  Before relying on these values, please be sure to understand exactly which
  total energy value is referred to by a given number. Different objects may
  all carry the same name 'total energy'. Definitions:

  Total energy of the DFT / Hartree-Fock s.c.f. calculation:
  | Note that this energy does not include ANY quantities calculated after the
  | s.c.f. cycle, in particular not ANY RPA, MP2, etc. many-body perturbation terms.

  Final zero-broadening corrected energy:
  | For metallic systems only, a broadening of the occupation numbers at the Fermi
  | level can be extrapolated back to zero broadening by an electron-gas inspired
  | formula. For all systems that are not real metals, this value can be
  | meaningless and should be avoided.

------------------------------------------------------------------------------
  Methods described in the following list of references were used in this FHI-aims run.
  If you publish the results, please make sure to cite these reference if they apply.
  FHI-aims is an academic code, and for our developers (often, Ph.D. students
  and postdocs), scientific credit in the community is essential.
  Thank you for helping us!

  For any use of FHI-aims, please cite:

    Volker Blum, Ralf Gehrke, Felix Hanke, Paula Havu, Ville Havu,
    Xinguo Ren, Karsten Reuter, and Matthias Scheffler
    'Ab initio molecular simulations with numeric atom-centered orbitals'
    Computer Physics Communications 180, 2175-2196 (2009)
    http://dx.doi.org/10.1016/j.cpc.2009.06.022


  The scalable eigensolver library ELPA was used in your run.
  ELPA is essential especially for large systems on hundreds or thousands of CPUs.
  For ELPA, please cite:

    Andreas Marek, Volker Blum, Rainer Johanni, Ville Havu, Bruno Lang,
    Thomas Auckenthaler, Alexander Heinecke, Hans-Joachim Bungartz, and Hermann Lederer,
    'The ELPA Library - Scalable Parallel Eigenvalue Solutions
    for Electronic Structure Theory and Computational Science'
    The Journal of Physics: Condensed Matter 26, 213201 (2014).
    http://dx.doi.org/10.1088/0953-8984/26/21/213201


  The ELSI infrastructure was used in your run to solve the Kohn-Sham electronic structure.
  Please check out http://elsi-interchange.org to learn more.
  If scalability is important for your project, please acknowledge ELSI by citing:

    V. W-z. Yu, F. Corsetti, A. Garcia, W. P. Huhn, M. Jacquelin, W. Jia,
    B. Lange, L. Lin, J. Lu, W. Mi, A. Seifitokaldani, A. Vazquez-Mayagoitia,
    C. Yang, H. Yang, and V. Blum
    'ELSI: A unified software interface for Kohn-Sham electronic structure solvers'
    Computer Physics Communications 222, 267-285 (2018).
    http://dx.doi.org/10.1016/j.cpc.2017.09.007


  For the real-space grid partitioning and parallelization used in this calculation, please cite:

    Ville Havu, Volker Blum, Paula Havu, and Matthias Scheffler,
    'Efficient O(N) integration for all-electron electronic structure calculation'
    'using numerically tabulated basis functions'
    Journal of Computational Physics 228, 8367-8379 (2009).
    http://dx.doi.org/10.1016/j.jcp.2009.08.008

  Of course, there are many other important community references, e.g., those cited in the
  above references. Our list is limited to references that describe implementations in the
  FHI-aims code. The reason is purely practical (length of this list) - please credit others as well.

------------------------------------------------------------
          Leaving FHI-aims.
          Date     :  20200214, Time     :  160046.186

          Computational steps:
          | Number of self-consistency cycles          :           27
          | Number of SCF (re)initializations          :            1

          Detailed time accounting                     :  max(cpu_time)    wall_clock(cpu1)
          | Total time                                 :     4069.581 s        4069.569 s
          | Preparation time                           :        0.266 s           0.313 s
          | Boundary condition initalization           :       22.638 s          22.634 s
          | Grid partitioning                          :        6.456 s           6.452 s
          | Preloading free-atom quantities on grid    :        0.007 s           0.011 s
          | Free-atom superposition energy             :        3.549 s           3.548 s
          | Total time for integrations                :      221.556 s         221.543 s
          | Total time for solution of K.-S. equations :     1699.828 s        1699.697 s
          | Total time for density update              :      373.333 s         373.300 s
          | Total time for mixing & preconditioning    :      970.331 s         970.261 s
          | Total time for Hartree multipole update    :        0.822 s           0.834 s
          | Total time for Hartree multipole sum       :      683.288 s         683.265 s
          | Total time for total energy evaluation     :        0.053 s           0.076 s
          | Total time for scaled ZORA corrections     :        0.000 s           0.000 s
          | Total time for vdW correction              :       72.596 s          72.591 s

          Partial memory accounting:
          | Residual value for overall tracked memory usage across tasks :       28710.265 MB (should be 0.000 MB)
          |
          | Largest tracked array allocation (+KS_eigenvector_complex):
          |   Minimum:      209.715 MB (on task  1)
          |   Maximum:      209.715 MB (on task  1)
          |   Average:      209.715 MB
          |
          | Because the residual tracked memory usage was not zero, the peak value for overall
          | tracked memory usage was not output, as it is probably incorrect.  This is likely due
          | to a missing aims_deallocate statement in the source code, which should be otherwise
          | harmless.
          |
          Note:  These values currently only include a subset of arrays which are explicitly tracked.
          The "true" memory usage will be greater.

          Have a nice day.
------------------------------------------------------------
