  MPI-parallelism will be employed.
------------------------------------------------------------
          Invoking FHI-aims ...
          Version 180424
          Compiled on 2018/04/28 at 19:12:01 on host coe.psc.edu.

          When using FHI-aims, please cite the following reference:

          Volker Blum, Ralf Gehrke, Felix Hanke, Paula Havu,
          Ville Havu, Xinguo Ren, Karsten Reuter, and Matthias Scheffler,
          'Ab Initio Molecular Simulations with Numeric Atom-Centered Orbitals',
          Computer Physics Communications 180, 2175-2196 (2009)

          For any questions about FHI-aims, please visit the aimsclub website
          with its forums and wiki. Contributions to both the forums and the
          wiki are warmly encouraged - they are for you, and everyone is welcome there.

------------------------------------------------------------



  Date     :  20200213, Time     :  223304.050
  Time zero on CPU 1             :   0.399750000000000E-01  s.
  Internal wall clock time zero  :           350865184.050  s.

  FHI-aims created a unique identifier for this run for later identification
  aims_uuid : 4B78E34D-8990-4EF1-A02C-F47B2C64BEDC

  Using       56 parallel tasks.
  Task        0 on host d030 reporting.
  Task        1 on host d030 reporting.
  Task        2 on host d030 reporting.
  Task        3 on host d030 reporting.
  Task        4 on host d030 reporting.
  Task        5 on host d030 reporting.
  Task        6 on host d030 reporting.
  Task        7 on host d030 reporting.
  Task        8 on host d030 reporting.
  Task        9 on host d030 reporting.
  Task       10 on host d030 reporting.
  Task       11 on host d030 reporting.
  Task       12 on host d030 reporting.
  Task       13 on host d030 reporting.
  Task       14 on host d030 reporting.
  Task       15 on host d030 reporting.
  Task       16 on host d030 reporting.
  Task       17 on host d030 reporting.
  Task       18 on host d030 reporting.
  Task       19 on host d030 reporting.
  Task       20 on host d030 reporting.
  Task       21 on host d030 reporting.
  Task       22 on host d030 reporting.
  Task       23 on host d030 reporting.
  Task       24 on host d030 reporting.
  Task       25 on host d030 reporting.
  Task       26 on host d030 reporting.
  Task       27 on host d030 reporting.
  Task       28 on host d030 reporting.
  Task       29 on host d030 reporting.
  Task       30 on host d030 reporting.
  Task       31 on host d030 reporting.
  Task       32 on host d030 reporting.
  Task       33 on host d030 reporting.
  Task       34 on host d030 reporting.
  Task       35 on host d030 reporting.
  Task       36 on host d030 reporting.
  Task       37 on host d030 reporting.
  Task       38 on host d030 reporting.
  Task       39 on host d030 reporting.
  Task       40 on host d030 reporting.
  Task       41 on host d030 reporting.
  Task       42 on host d030 reporting.
  Task       43 on host d030 reporting.
  Task       44 on host d030 reporting.
  Task       45 on host d030 reporting.
  Task       46 on host d030 reporting.
  Task       47 on host d030 reporting.
  Task       48 on host d030 reporting.
  Task       49 on host d030 reporting.
  Task       50 on host d030 reporting.
  Task       51 on host d030 reporting.
  Task       52 on host d030 reporting.
  Task       53 on host d030 reporting.
  Task       54 on host d030 reporting.
  Task       55 on host d030 reporting.

  Performing system and environment tests:
  *** Environment variable OMP_NUM_THREADS is not set
  *** For performance reasons you might want to set it to 1
  | Stacksize not measured: no C compiler
  | Checking for scalapack...
  | Testing pdtran()...
  | All pdtran() tests passed.

  Obtaining array dimensions for all initial allocations:
  
  -----------------------------------------------------------------------
  Parsing control.in (first pass over file, find array dimensions only).
  The contents of control.in will be repeated verbatim below
  unless switched off by setting 'verbatim_writeout .false.' .
  in the first line of control.in .
  -----------------------------------------------------------------------
  
  #===============================================================================
  # FHI-aims file: ./control.in
  # Created using the Atomic Simulation Environment (ASE)
  # Tue Feb 11 11:37:51 2020
  #===============================================================================
  xc                                 pbe
  spin                               none
  relativistic                       atomic_zora scalar
  charge                             0
  occupation_type                    gaussian 0.01
  mixer                              pulay
  n_max_pulay                        8
  charge_mix_param                   0.02
  sc_accuracy_rho                    0.0001
  sc_accuracy_eev                    0.01
  sc_accuracy_etot                   1e-06
  sc_iter_limit                      10000
  KS_method                          parallel
  empty_states                       6
  basis_threshold                    1e-05
  k_grid                             4 4 1
  vdw_correction_hirshfeld
  use_dipole_correction              .true.
  #===============================================================================
  
  ################################################################################
  #
  #  FHI-aims code project
  #  VB, Fritz-Haber Institut, 2009
  #
  #  Suggested "light" defaults for H atom (to be pasted into control.in file)
  #  Be sure to double-check any results obtained with these settings for post-processing,
  #  e.g., with the "tight" defaults and larger basis sets.
  #
  ################################################################################
    species        H
  #     global species definitions
      nucleus             1
      mass                1.00794
  #
      l_hartree           4
  #
      cut_pot             3.5  1.5  1.0
      basis_dep_cutoff    1e-4
  #
      radial_base         24 5.0
      radial_multiplier   1
      angular_grids       specified
        division   0.2421   50
        division   0.3822  110
        division   0.4799  194
        division   0.5341  302
  #      division   0.5626  434
  #      division   0.5922  590
  #      division   0.6542  770
  #      division   0.6868 1202
  #      outer_grid  770
        outer_grid  302
  ################################################################################
  #
  #  Definition of "minimal" basis
  #
  ################################################################################
  #     valence basis states
      valence      1  s   1.
  #     ion occupancy
      ion_occ      1  s   0.5
  ################################################################################
  #
  #  Suggested additional basis functions. For production calculations,
  #  uncomment them one after another (the most important basis functions are
  #  listed first).
  #
  #  Basis constructed for dimers: 0.5 A, 0.7 A, 1.0 A, 1.5 A, 2.5 A
  #
  ################################################################################
  #  "First tier" - improvements: -1014.90 meV to -62.69 meV
       hydro 2 s 2.1
       hydro 2 p 3.5
  #  "Second tier" - improvements: -12.89 meV to -1.83 meV
  #     hydro 1 s 0.85
  #     hydro 2 p 3.7
  #     hydro 2 s 1.2
  #     hydro 3 d 7
  #  "Third tier" - improvements: -0.25 meV to -0.12 meV
  #     hydro 4 f 11.2
  #     hydro 3 p 4.8
  #     hydro 4 d 9
  #     hydro 3 s 3.2
  ################################################################################
  #
  #  FHI-aims code project
  #  VB, Fritz-Haber Institut, 2009
  #
  #  Suggested "light" defaults for C atom (to be pasted into control.in file)
  #  Be sure to double-check any results obtained with these settings for post-processing,
  #  e.g., with the "tight" defaults and larger basis sets.
  #
  ################################################################################
    species        C
  #     global species definitions
      nucleus             6
      mass                12.0107
  #
      l_hartree           4
  #
      cut_pot             3.5  1.5  1.0
      basis_dep_cutoff    1e-4
  #
      radial_base         34 5.0
      radial_multiplier   1
      angular_grids specified
        division   0.3326   50
        division   0.5710  110
        division   0.7727  194
        division   0.8772  302
  #      division   0.9334  434
  #      division   0.9625  590
  #      division   0.9924  770
  #      division   1.0230  974
  #      division   1.4589 1202
  #     outer_grid  974
       outer_grid 302
  ################################################################################
  #
  #  Definition of "minimal" basis
  #
  ################################################################################
  #     valence basis states
      valence      2  s   2.
      valence      2  p   2.
  #     ion occupancy
      ion_occ      2  s   1.
      ion_occ      2  p   1.
  ################################################################################
  #
  #  Suggested additional basis functions. For production calculations,
  #  uncomment them one after another (the most important basis functions are
  #  listed first).
  #
  #  Constructed for dimers: 1.0 A, 1.25 A, 1.5 A, 2.0 A, 3.0 A
  #
  ################################################################################
  #  "First tier" - improvements: -1214.57 meV to -155.61 meV
       hydro 2 p 1.7
       hydro 3 d 6
       hydro 2 s 4.9
  #  "Second tier" - improvements: -67.75 meV to -5.23 meV
  #     hydro 4 f 9.8
  #     hydro 3 p 5.2
  #     hydro 3 s 4.3
  #     hydro 5 g 14.4
  #     hydro 3 d 6.2
  #  "Third tier" - improvements: -2.43 meV to -0.60 meV
  #     hydro 2 p 5.6
  #     hydro 2 s 1.4
  #     hydro 3 d 4.9
  #     hydro 4 f 11.2
  #  "Fourth tier" - improvements: -0.39 meV to -0.18 meV
  #     hydro 2 p 2.1
  #     hydro 5 g 16.4
  #     hydro 4 d 13.2
  #     hydro 3 s 13.6
  #     hydro 4 f 17.6
  #  Further basis functions - improvements: -0.08 meV and below
  #     hydro 3 s 2
  #     hydro 3 p 6
  #     hydro 4 d 20
  ################################################################################
  #
  #  FHI-aims code project
  #  VB, Fritz-Haber Institut, 2009
  #
  #  Suggested "light" defaults for N atom (to be pasted into control.in file)
  #  Be sure to double-check any results obtained with these settings for post-processing,
  #  e.g., with the "tight" defaults and larger basis sets.
  #
  ################################################################################
    species        N
  #     global species definitions
      nucleus             7
      mass                14.0067
  #
      l_hartree           4
  #
      cut_pot             3.5  1.5  1.0
      basis_dep_cutoff    1e-4
  #
      radial_base         35 5.0
      radial_multiplier   1
      angular_grids       specified
        division   0.2599   50
        division   0.4601  110
        division   0.5885  194
        division   0.6503  302
  #      division   0.6939  434
  #      division   0.7396  590
  #      division   0.7632  770
  #      division   0.8122  974
  #      division   1.1604 1202
  #      outer_grid  974
        outer_grid  302
  ################################################################################
  #
  #  Definition of "minimal" basis
  #
  ################################################################################
  #     valence basis states
      valence      2  s   2.
      valence      2  p   3.
  #     ion occupancy
      ion_occ      2  s   1.
      ion_occ      2  p   2.
  ################################################################################
  #
  #  Suggested additional basis functions. For production calculations,
  #  uncomment them one after another (the most important basis functions are
  #  listed first).
  #
  #  Constructed for dimers: 1.0 A, 1.1 A, 1.5 A, 2.0 A, 3.0 A
  #
  ################################################################################
  #  "First tier" - improvements: -1193.42 meV to -220.60 meV
       hydro 2 p 1.8
       hydro 3 d 6.8
       hydro 3 s 5.8
  #  "Second tier" - improvements: -80.21 meV to -6.86 meV
  #     hydro 4 f 10.8
  #     hydro 3 p 5.8
  #     hydro 1 s 0.8
  #     hydro 5 g 16
  #     hydro 3 d 4.9
  #  "Third tier" - improvements: -4.29 meV to -0.53 meV
  #     hydro 3 s 16
  #     ionic 2 p auto
  #     hydro 3 d 6.6
  #     hydro 4 f 11.6
  #  "Fourth tier" - improvements: -0.75 meV to -0.25 meV
  #     hydro 2 p 4.5
  #     hydro 2 s 2.4
  #     hydro 5 g 14.4
  #     hydro 4 d 14.4
  #     hydro 4 f 16.8
  # Further basis functions - -0.21 meV and below
  #     hydro 3 p 14.8
  #     hydro 3 s 4.4
  #     hydro 3 d 19.6
  #     hydro 5 g 12.8
  ################################################################################
  #
  #  FHI-aims code project
  #  VB, Fritz-Haber Institut, 2009
  #
  #  Suggested "light" defaults for O atom (to be pasted into control.in file)
  #  Be sure to double-check any results obtained with these settings for post-processing,
  #  e.g., with the "tight" defaults and larger basis sets.
  #
  ################################################################################
    species        O
  #     global species definitions
      nucleus             8
      mass                15.9994
  #
      l_hartree           4
  #
      cut_pot             3.5  1.5  1.0
      basis_dep_cutoff    1e-4
  #
      radial_base         36 5.0
      radial_multiplier   1
       angular_grids specified
        division   0.2659   50
        division   0.4451  110
        division   0.6052  194
        division   0.7543  302
  #      division   0.8014  434
  #      division   0.8507  590
  #      division   0.8762  770
  #      division   0.9023  974
  #      division   1.2339 1202
  #      outer_grid 974
        outer_grid 302
  ################################################################################
  #
  #  Definition of "minimal" basis
  #
  ################################################################################
  #     valence basis states
      valence      2  s   2.
      valence      2  p   4.
  #     ion occupancy
      ion_occ      2  s   1.
      ion_occ      2  p   3.
  ################################################################################
  #
  #  Suggested additional basis functions. For production calculations,
  #  uncomment them one after another (the most important basis functions are
  #  listed first).
  #
  #  Constructed for dimers: 1.0 A, 1.208 A, 1.5 A, 2.0 A, 3.0 A
  #
  ################################################################################
  #  "First tier" - improvements: -699.05 meV to -159.38 meV
       hydro 2 p 1.8
       hydro 3 d 7.6
       hydro 3 s 6.4
  #  "Second tier" - improvements: -49.91 meV to -5.39 meV
  #     hydro 4 f 11.6
  #     hydro 3 p 6.2
  #     hydro 3 d 5.6
  #     hydro 5 g 17.6
  #     hydro 1 s 0.75
  #  "Third tier" - improvements: -2.83 meV to -0.50 meV
  #     ionic 2 p auto
  #     hydro 4 f 10.8
  #     hydro 4 d 4.7
  #     hydro 2 s 6.8
  #  "Fourth tier" - improvements: -0.40 meV to -0.12 meV
  #     hydro 3 p 5
  #     hydro 3 s 3.3
  #     hydro 5 g 15.6
  #     hydro 4 f 17.6
  #     hydro 4 d 14
  # Further basis functions - -0.08 meV and below
  #     hydro 3 s 2.1
  #     hydro 4 d 11.6
  #     hydro 3 p 16
  #     hydro 2 s 17.2
  
  -----------------------------------------------------------------------
  Completed first pass over input file control.in .
  -----------------------------------------------------------------------
  
  
  -----------------------------------------------------------------------
  Parsing geometry.in (first pass over file, find array dimensions only).
  The contents of geometry.in will be repeated verbatim below
  unless switched off by setting 'verbatim_writeout .false.' .
  in the first line of geometry.in .
  -----------------------------------------------------------------------
  
  #=======================================================
  # FHI-aims file: ./geometry.in
  # Created using the Atomic Simulation Environment (ASE)
  # Tue Feb 11 11:37:50 2020
  #=======================================================
  lattice_vector 6.5957600000000003 0.0000000000000000 0.0000000000000000
  lattice_vector -1.5450440000000001 7.2328489999999999 0.0000000000000000
  lattice_vector 0.0000000000000000 0.0000000000000000 146.0841589999999997
  atom_frac 0.7022389999999999 0.7714430000000000 0.2905950000000000 H
  atom_frac 0.8527860000000000 0.7481320000000000 0.3284100000000000 H
  atom_frac 0.3500430000000000 0.2473650000000000 0.2943120000000000 H
  atom_frac 0.7536680000000000 0.3937020000000000 0.2775590000000000 H
  atom_frac 0.7996330000000000 0.1252500000000000 0.3153460000000000 H
  atom_frac 0.2988840000000000 0.6252560000000000 0.3073480000000000 H
  atom_frac 0.5320430000000000 0.8299350000000000 0.2821840000000000 H
  atom_frac 0.0220780000000000 0.6893629999999999 0.3199710000000000 H
  atom_frac 0.5204460000000000 0.1889920000000000 0.3026950000000000 H
  atom_frac 0.8566390000000000 0.5554530000000000 0.2863690000000000 H
  atom_frac 0.6981000000000001 0.9643940000000000 0.3242250000000000 H
  atom_frac 0.1956740000000000 0.4633950000000000 0.2985520000000000 H
  atom_frac 0.2063670000000000 0.2733600000000000 0.3319750000000000 H
  atom_frac 0.2593690000000000 0.8961910000000000 0.3450250000000000 H
  atom_frac 0.0370650000000000 0.3321490000000000 0.3404140000000000 H
  atom_frac 0.3610330000000000 0.0570980000000000 0.3361600000000000 H
  atom_frac 0.7090190000000000 0.7739360000000000 0.3660590000000000 H
  atom_frac 0.8595670000000000 0.7506260000000000 0.4038740000000000 H
  atom_frac 0.3568230000000001 0.2498590000000000 0.3697760000000000 H
  atom_frac 0.7604480000000000 0.3961950000000000 0.3530230000000000 H
  atom_frac 0.8064130000000000 0.1277440000000000 0.3908100000000000 H
  atom_frac 0.3056640000000000 0.6277500000000000 0.3828120000000000 H
  atom_frac 0.5388230000000001 0.8324279999999999 0.3576480000000000 H
  atom_frac 0.0288580000000000 0.6918570000000001 0.3954350000000000 H
  atom_frac 0.5272260000000000 0.1914860000000000 0.3781590000000000 H
  atom_frac 0.8634190000000002 0.5579470000000000 0.3618330000000000 H
  atom_frac 0.7048810000000000 0.9668869999999999 0.3996890000000000 H
  atom_frac 0.2024540000000000 0.4658890000000000 0.3740160000000000 H
  atom_frac 0.2131470000000000 0.2758540000000000 0.4074390000000000 H
  atom_frac 0.2661490000000000 0.8986850000000000 0.4204890000000000 H
  atom_frac 0.0438450000000000 0.3346419999999999 0.4158770000000000 H
  atom_frac 0.3678130000000000 0.0595920000000000 0.4116240000000000 H
  atom_frac 0.7158010000000001 0.7764300000000000 0.4415370000000000 H
  atom_frac 0.8663480000000000 0.7531200000000000 0.4793510000000000 H
  atom_frac 0.3636040000000000 0.2523530000000000 0.4452540000000000 H
  atom_frac 0.7672289999999999 0.3986900000000000 0.4285010000000000 H
  atom_frac 0.8131939999999999 0.1302380000000000 0.4662879999999999 H
  atom_frac 0.3124460000000000 0.6302440000000000 0.4582900000000000 H
  atom_frac 0.5456050000000000 0.8349220000000001 0.4331260000000000 H
  atom_frac 0.0356400000000000 0.6943510000000001 0.4709130000000000 H
  atom_frac 0.5340080000000000 0.1939800000000000 0.4536370000000000 H
  atom_frac 0.8702010000000000 0.5604410000000000 0.4373110000000000 H
  atom_frac 0.7116620000000000 0.9693820000000000 0.4751670000000001 H
  atom_frac 0.2092350000000000 0.4683830000000000 0.4494929999999999 H
  atom_frac 0.2199280000000000 0.2783480000000000 0.4829170000000000 H
  atom_frac 0.2729310000000000 0.9011790000000000 0.4959669999999999 H
  atom_frac 0.0506270000000000 0.3371370000000000 0.4913550000000000 H
  atom_frac 0.3745940000000000 0.0620860000000000 0.4871010000000001 H
  atom_frac 0.7225810000000000 0.7789239999999999 0.5170010000000000 H
  atom_frac 0.8731279999999999 0.7556140000000000 0.5548149999999999 H
  atom_frac 0.3703850000000000 0.2548470000000000 0.5207170000000000 H
  atom_frac 0.7740089999999998 0.4011830000000000 0.5039650000000000 H
  atom_frac 0.8199740000000000 0.1327320000000000 0.5417520000000000 H
  atom_frac 0.3192260000000000 0.6327380000000000 0.5337540000000000 H
  atom_frac 0.5523850000000000 0.8374160000000000 0.5085900000000000 H
  atom_frac 0.0424200000000000 0.6968450000000000 0.5463770000000000 H
  atom_frac 0.5407880000000000 0.1964740000000000 0.5291010000000000 H
  atom_frac 0.8769810000000000 0.5629340000000000 0.5127750000000000 H
  atom_frac 0.7184420000000000 0.9718750000000000 0.5506300000000000 H
  atom_frac 0.2160160000000000 0.4708770000000000 0.5249570000000000 H
  atom_frac 0.2267090000000000 0.2808410000000000 0.5583810000000000 H
  atom_frac 0.2797110000000000 0.9036729999999999 0.5714310000000000 H
  atom_frac 0.0574070000000000 0.3396300000000000 0.5668190000000000 H
  atom_frac 0.3813740000000000 0.0645800000000000 0.5625650000000000 H
  atom_frac 0.7293620000000000 0.7814179999999999 0.5924779999999999 H
  atom_frac 0.8799100000000000 0.7581080000000000 0.6302930000000000 H
  atom_frac 0.3771659999999999 0.2573410000000000 0.5961950000000000 H
  atom_frac 0.7807910000000000 0.4036770000000000 0.5794420000000000 H
  atom_frac 0.8267560000000000 0.1352260000000000 0.6172290000000000 H
  atom_frac 0.3260070000000000 0.6352320000000000 0.6092310000000000 H
  atom_frac 0.5591660000000001 0.8399100000000000 0.5840680000000000 H
  atom_frac 0.0492010000000000 0.6993390000000000 0.6218550000000000 H
  atom_frac 0.5475690000000000 0.1989680000000000 0.6045779999999999 H
  atom_frac 0.8837619999999999 0.5654280000000000 0.5882520000000000 H
  atom_frac 0.7252240000000000 0.9743690000000000 0.6261080000000000 H
  atom_frac 0.2227970000000000 0.4733710000000000 0.6004350000000001 H
  atom_frac 0.2334900000000000 0.2833350000000000 0.6338580000000000 H
  atom_frac 0.2864920000000000 0.9061669999999999 0.6469080000000000 H
  atom_frac 0.0641880000000000 0.3421240000000000 0.6422970000000000 H
  atom_frac 0.3881560000000000 0.0670740000000000 0.6380430000000000 H
  atom_frac 0.7361420000000000 0.7839120000000001 0.6679420000000000 H
  atom_frac 0.8866900000000000 0.7606010000000000 0.7057570000000000 H
  atom_frac 0.3839460000000000 0.2598350000000000 0.6716590000000000 H
  atom_frac 0.7875710000000000 0.4061710000000000 0.6549060000000000 H
  atom_frac 0.8335359999999999 0.1377200000000000 0.6926930000000000 H
  atom_frac 0.3327870000000000 0.6377250000000000 0.6846950000000001 H
  atom_frac 0.5659470000000000 0.8424040000000000 0.6595310000000000 H
  atom_frac 0.0559820000000000 0.7018320000000000 0.6973180000000000 H
  atom_frac 0.5543490000000000 0.2014620000000000 0.6800420000000000 H
  atom_frac 0.8905430000000000 0.5679219999999999 0.6637160000000000 H
  atom_frac 0.7320040000000000 0.9768630000000000 0.7015720000000000 H
  atom_frac 0.2295770000000000 0.4758650000000000 0.6758990000000000 H
  atom_frac 0.2402700000000000 0.2858290000000000 0.7093220000000000 H
  atom_frac 0.2932730000000000 0.9086600000000000 0.7223720000000000 H
  atom_frac 0.0709680000000000 0.3446180000000000 0.7177610000000000 H
  atom_frac 0.3949360000000000 0.0695670000000000 0.7135070000000000 H
  atom_frac 0.5509510000000000 0.7262130000000000 0.2872780000000000 C
  atom_frac 0.0037260000000000 0.7933220000000000 0.3250650000000000 C
  atom_frac 0.5014080000000000 0.2926240000000000 0.2976020000000000 C
  atom_frac 0.7207060000000000 0.4534080000000000 0.2841120000000000 C
  atom_frac 0.8337010000000000 0.0661570000000000 0.3218990000000000 C
  atom_frac 0.3316750000000001 0.5654600000000000 0.3007960000000000 C
  atom_frac 0.0554070000000000 0.2281800000000000 0.3353200000000000 C
  atom_frac 0.2253910000000000 0.9553350000000000 0.3384730000000000 C
  atom_frac 0.5577309999999999 0.7287069999999999 0.3627420000000000 C
  atom_frac 0.0105060000000000 0.7958150000000001 0.4005290000000000 C
  atom_frac 0.5081890000000000 0.2951180000000000 0.3730660000000000 C
  atom_frac 0.7274870000000000 0.4559020000000000 0.3595750000000000 C
  atom_frac 0.8404820000000000 0.0686510000000000 0.3973620000000000 C
  atom_frac 0.3384560000000000 0.5679530000000000 0.3762600000000000 C
  atom_frac 0.0621870000000000 0.2306740000000000 0.4107840000000000 C
  atom_frac 0.2321710000000000 0.9578280000000000 0.4139360000000000 C
  atom_frac 0.5645120000000000 0.7312010000000001 0.4382190000000000 C
  atom_frac 0.0172870000000000 0.7983090000000000 0.4760060000000000 C
  atom_frac 0.5149700000000000 0.2976120000000000 0.4485440000000001 C
  atom_frac 0.7342680000000000 0.4583960000000000 0.4350530000000000 C
  atom_frac 0.8472630000000000 0.0711450000000000 0.4728400000000000 C
  atom_frac 0.3452370000000000 0.5704470000000000 0.4517370000000001 C
  atom_frac 0.0689690000000000 0.2331680000000000 0.4862620000000001 C
  atom_frac 0.2389520000000000 0.9603220000000000 0.4894140000000000 C
  atom_frac 0.5712930000000001 0.7336940000000000 0.5136830000000000 C
  atom_frac 0.0240680000000000 0.8008029999999999 0.5514700000000000 C
  atom_frac 0.5217500000000000 0.3001060000000000 0.5240070000000000 C
  atom_frac 0.7410480000000000 0.4608900000000000 0.5105170000000000 C
  atom_frac 0.8540430000000000 0.0736380000000000 0.5483040000000000 C
  atom_frac 0.3520170000000000 0.5729410000000000 0.5272010000000000 C
  atom_frac 0.0757490000000000 0.2356620000000000 0.5617259999999999 C
  atom_frac 0.2457320000000000 0.9628160000000000 0.5648780000000000 C
  atom_frac 0.5780740000000000 0.7361880000000000 0.5891610000000000 C
  atom_frac 0.0308490000000000 0.8032970000000001 0.6269479999999999 C
  atom_frac 0.5285320000000000 0.3025999999999999 0.5994850000000000 C
  atom_frac 0.7478300000000000 0.4633840000000000 0.5859950000000000 C
  atom_frac 0.8608250000000000 0.0761320000000000 0.6237819999999999 C
  atom_frac 0.3587990000000000 0.5754350000000000 0.6026790000000000 C
  atom_frac 0.0825300000000000 0.2381560000000000 0.6372030000000000 C
  atom_frac 0.2525140000000000 0.9653100000000000 0.6403560000000000 C
  atom_frac 0.5848540000000000 0.7386819999999999 0.6646250000000000 C
  atom_frac 0.0376290000000000 0.8057910000000000 0.7024120000000000 C
  atom_frac 0.5353120000000000 0.3050930000000000 0.6749490000000000 C
  atom_frac 0.7546100000000000 0.4658780000000000 0.6614590000000000 C
  atom_frac 0.8676050000000001 0.0786260000000000 0.6992460000000000 C
  atom_frac 0.3655790000000000 0.5779290000000000 0.6781430000000001 C
  atom_frac 0.0893110000000000 0.2406500000000000 0.7126670000000001 C
  atom_frac 0.2592940000000000 0.9678040000000000 0.7158200000000000 C
  atom_frac 0.5517919999999999 0.5474640000000000 0.2830650000000000 N
  atom_frac 0.0022650000000000 0.9717810000000000 0.3208250000000000 N
  atom_frac 0.5006380000000000 0.4714240000000000 0.3018280000000000 N
  atom_frac 0.3843390000000000 0.7166630000000000 0.2939400000000000 N
  atom_frac 0.6679210000000000 0.3021040000000000 0.2909530000000000 N
  atom_frac 0.8879120000000000 0.2181420000000000 0.3286990000000000 N
  atom_frac 0.3940510000000000 0.4732210000000000 0.2769260000000000 N
  atom_frac 0.1594910000000000 0.0459580000000000 0.3146580000000000 N
  atom_frac 0.6583700000000000 0.5456370000000000 0.3079680000000000 N
  atom_frac 0.2267700000000000 0.8074270000000000 0.2919440000000000 N
  atom_frac 0.3281990000000000 0.7120240000000000 0.3296620000000000 N
  atom_frac 0.8255100000000000 0.2113600000000000 0.2929490000000000 N
  atom_frac 0.0568280000000000 0.0497110000000000 0.3395600000000000 N
  atom_frac 0.1712500000000000 0.8034000000000000 0.3316720000000000 N
  atom_frac 0.8995710000000000 0.9755239999999999 0.3457130000000000 N
  atom_frac 0.7309430000000000 0.3095080000000000 0.3307090000000000 N
  atom_frac 0.5585730000000000 0.5499570000000000 0.3585290000000000 N
  atom_frac 0.0090450000000000 0.9742749999999999 0.3962890000000000 N
  atom_frac 0.5074180000000000 0.4739170000000000 0.3772920000000000 N
  atom_frac 0.3911200000000000 0.7191570000000000 0.3694040000000000 N
  atom_frac 0.6747010000000000 0.3045980000000000 0.3664170000000000 N
  atom_frac 0.8946930000000000 0.2206350000000000 0.4041630000000000 N
  atom_frac 0.4008310000000000 0.4757150000000000 0.3523900000000000 N
  atom_frac 0.1662710000000000 0.0484510000000000 0.3901220000000000 N
  atom_frac 0.6651500000000000 0.5481300000000000 0.3834320000000000 N
  atom_frac 0.2335500000000000 0.8099210000000000 0.3674080000000000 N
  atom_frac 0.3349790000000000 0.7145170000000000 0.4051260000000000 N
  atom_frac 0.8322909999999999 0.2138540000000000 0.3684130000000000 N
  atom_frac 0.0636080000000000 0.0522040000000000 0.4150240000000000 N
  atom_frac 0.1780300000000000 0.8058940000000000 0.4071360000000000 N
  atom_frac 0.9063510000000000 0.9780180000000001 0.4211770000000000 N
  atom_frac 0.7377230000000000 0.3120020000000000 0.4061730000000000 N
  atom_frac 0.5653540000000000 0.5524520000000001 0.4340070000000000 N
  atom_frac 0.0158270000000000 0.9767690000000001 0.4717660000000000 N
  atom_frac 0.5142000000000000 0.4764120000000000 0.4527700000000001 N
  atom_frac 0.3979009999999999 0.7216510000000000 0.4448820000000000 N
  atom_frac 0.6814829999999999 0.3070920000000000 0.4418950000000000 N
  atom_frac 0.9014740000000000 0.2231290000000000 0.4796400000000000 N
  atom_frac 0.4076120000000000 0.4782090000000000 0.4278670000000000 N
  atom_frac 0.1730520000000000 0.0509450000000000 0.4655990000000000 N
  atom_frac 0.6719309999999999 0.5506240000000000 0.4589090000000000 N
  atom_frac 0.2403320000000000 0.8124150000000000 0.4428860000000000 N
  atom_frac 0.3417610000000000 0.7170110000000000 0.4806039999999999 N
  atom_frac 0.8390720000000000 0.2163480000000000 0.4438909999999999 N
  atom_frac 0.0703900000000000 0.0546980000000000 0.4905020000000000 N
  atom_frac 0.1848110000000000 0.8083880000000000 0.4826140000000000 N
  atom_frac 0.9131330000000000 0.9805120000000001 0.4966550000000000 N
  atom_frac 0.7445050000000000 0.3144960000000000 0.4816500000000001 N
  atom_frac 0.5721340000000000 0.5549450000000000 0.5094710000000000 N
  atom_frac 0.0226070000000000 0.9792630000000000 0.5472300000000000 N
  atom_frac 0.5209800000000000 0.4789050000000000 0.5282340000000000 N
  atom_frac 0.4046810000000000 0.7241450000000000 0.5203460000000000 N
  atom_frac 0.6882630000000001 0.3095859999999999 0.5173590000000000 N
  atom_frac 0.9082540000000000 0.2256230000000000 0.5551040000000000 N
  atom_frac 0.4143930000000000 0.4807020000000000 0.5033310000000000 N
  atom_frac 0.1798330000000000 0.0534390000000000 0.5410630000000000 N
  atom_frac 0.6787119999999999 0.5531180000000000 0.5343730000000000 N
  atom_frac 0.2471120000000000 0.8149090000000000 0.5183500000000000 N
  atom_frac 0.3485410000000000 0.7195050000000000 0.5560680000000000 N
  atom_frac 0.8458520000000000 0.2188420000000000 0.5193550000000000 N
  atom_frac 0.0771700000000000 0.0571920000000000 0.5659660000000000 N
  atom_frac 0.1915910000000000 0.8108810000000000 0.5580780000000000 N
  atom_frac 0.9199130000000000 0.9830050000000000 0.5721190000000000 N
  atom_frac 0.7512850000000000 0.3169900000000000 0.5571140000000000 N
  atom_frac 0.5789160000000000 0.5574389999999999 0.5849490000000001 N
  atom_frac 0.0293880000000000 0.9817570000000000 0.6227080000000000 N
  atom_frac 0.5277610000000000 0.4813990000000000 0.6037110000000000 N
  atom_frac 0.4114630000000000 0.7266390000000000 0.5958230000000000 N
  atom_frac 0.6950440000000000 0.3120800000000000 0.5928360000000000 N
  atom_frac 0.9150360000000000 0.2281170000000000 0.6305820000000000 N
  atom_frac 0.4211740000000000 0.4831960000000000 0.5788090000000000 N
  atom_frac 0.1866140000000000 0.0559330000000000 0.6165410000000000 N
  atom_frac 0.6854930000000000 0.5556120000000000 0.6098510000000000 N
  atom_frac 0.2538930000000000 0.8174030000000000 0.5938270000000000 N
  atom_frac 0.3553220000000000 0.7219989999999999 0.6315460000000001 N
  atom_frac 0.8526339999999999 0.2213360000000000 0.5948320000000000 N
  atom_frac 0.0839510000000000 0.0596860000000000 0.6414430000000000 N
  atom_frac 0.1983730000000000 0.8133749999999998 0.6335550000000000 N
  atom_frac 0.9266940000000001 0.9854990000000000 0.6475959999999999 N
  atom_frac 0.7580660000000000 0.3194839999999999 0.6325920000000000 N
  atom_frac 0.5856960000000000 0.5599330000000001 0.6604120000000000 N
  atom_frac 0.0361680000000000 0.9842510000000000 0.6981720000000000 N
  atom_frac 0.5345410000000000 0.4838930000000000 0.6791750000000000 N
  atom_frac 0.4182430000000000 0.7291320000000000 0.6712870000000000 N
  atom_frac 0.7018240000000001 0.3145740000000001 0.6683000000000000 N
  atom_frac 0.9218160000000001 0.2306110000000000 0.7060460000000000 N
  atom_frac 0.4279540000000000 0.4856900000000001 0.6542730000000000 N
  atom_frac 0.1933940000000000 0.0584270000000000 0.6920050000000000 N
  atom_frac 0.6922730000000000 0.5581060000000000 0.6853150000000000 N
  atom_frac 0.2606730000000000 0.8198960000000000 0.6692910000000000 N
  atom_frac 0.3621020000000000 0.7244930000000001 0.7070100000000000 N
  atom_frac 0.8594140000000000 0.2238300000000000 0.6702960000000000 N
  atom_frac 0.0907320000000000 0.0621800000000000 0.7169070000000000 N
  atom_frac 0.2051530000000000 0.8158690000000001 0.7090190000000000 N
  atom_frac 0.9334740000000000 0.9879930000000000 0.7230600000000000 N
  atom_frac 0.7648460000000000 0.3219770000000000 0.7080560000000000 N
  atom_frac 0.2624250000000000 0.5663610000000000 0.2754120000000000 O
  atom_frac 0.2913050000000000 0.9530080000000000 0.3131440000000000 O
  atom_frac 0.7899850000000000 0.4524860000000000 0.3094680000000000 O
  atom_frac 0.3972810000000001 0.3194280000000000 0.2738150000000000 O
  atom_frac 0.1556400000000000 0.1995140000000000 0.3115330000000000 O
  atom_frac 0.6551709999999999 0.6994300000000000 0.3110920000000000 O
  atom_frac 0.2624230000000000 0.9362940000000000 0.2864100000000000 O
  atom_frac 0.2914860000000000 0.5826020000000000 0.3241700000000000 O
  atom_frac 0.7898060000000000 0.0824430000000000 0.2984690000000000 O
  atom_frac 0.0621050000000000 0.7541490000000000 0.2962250000000000 O
  atom_frac 0.9902069999999999 0.2646690000000000 0.2886820000000000 O
  atom_frac 0.5656930000000000 0.2561780000000000 0.3264830000000000 O
  atom_frac 0.7677570000000000 0.0684840000000000 0.3472280000000000 O
  atom_frac 0.9033620000000000 0.8219470000000000 0.3488380000000000 O
  atom_frac 0.7676780000000000 0.4389400000000000 0.3362150000000000 O
  atom_frac 0.4934390000000000 0.7653329999999999 0.3338890000000000 O
  atom_frac 0.2692050000000000 0.5688540000000000 0.3508760000000000 O
  atom_frac 0.2980850000000000 0.9555010000000000 0.3886070000000000 O
  atom_frac 0.7967649999999999 0.4549800000000000 0.3849320000000000 O
  atom_frac 0.4040610000000000 0.3219220000000000 0.3492790000000000 O
  atom_frac 0.1624200000000000 0.2020080000000000 0.3869970000000000 O
  atom_frac 0.6619510000000000 0.7019240000000000 0.3865560000000000 O
  atom_frac 0.2692030000000000 0.9387880000000000 0.3618740000000000 O
  atom_frac 0.2982660000000000 0.5850959999999999 0.3996340000000000 O
  atom_frac 0.7965869999999999 0.0849360000000000 0.3739330000000000 O
  atom_frac 0.0688850000000000 0.7566420000000000 0.3716890000000000 O
  atom_frac 0.9969870000000001 0.2671630000000000 0.3641460000000000 O
  atom_frac 0.5724730000000000 0.2586720000000000 0.4019460000000000 O
  atom_frac 0.7745370000000000 0.0709780000000000 0.4226910000000000 O
  atom_frac 0.9101420000000001 0.8244410000000000 0.4243020000000000 O
  atom_frac 0.7744579999999999 0.4414340000000000 0.4116790000000000 O
  atom_frac 0.5002190000000000 0.7678270000000001 0.4093520000000000 O
  atom_frac 0.2759860000000000 0.5713490000000000 0.4263530000000000 O
  atom_frac 0.3048660000000000 0.9579950000000000 0.4640850000000000 O
  atom_frac 0.8035460000000000 0.4574740000000000 0.4604100000000000 O
  atom_frac 0.4108430000000000 0.3244160000000000 0.4247560000000000 O
  atom_frac 0.1692020000000000 0.2045020000000000 0.4624750000000000 O
  atom_frac 0.6687320000000001 0.7044180000000000 0.4620339999999999 O
  atom_frac 0.2759850000000000 0.9412820000000000 0.4373520000000000 O
  atom_frac 0.3050470000000000 0.5875899999999999 0.4751120000000000 O
  atom_frac 0.8033680000000000 0.0874310000000000 0.4494110000000000 O
  atom_frac 0.0756660000000000 0.7591360000000000 0.4471670000000000 O
  atom_frac 0.0037690000000000 0.2696570000000000 0.4396230000000000 O
  atom_frac 0.5792550000000000 0.2611660000000000 0.4774240000000000 O
  atom_frac 0.7813190000000000 0.0734720000000000 0.4981690000000000 O
  atom_frac 0.9169230000000000 0.8269350000000000 0.4997799999999999 O
  atom_frac 0.7812390000000000 0.4439280000000000 0.4871570000000000 O
  atom_frac 0.5070000000000000 0.7703210000000000 0.4848299999999999 O
  atom_frac 0.2827660000000000 0.5738420000000000 0.5018170000000000 O
  atom_frac 0.3116470000000000 0.9604890000000000 0.5395489999999999 O
  atom_frac 0.8103260000000000 0.4599680000000000 0.5358740000000000 O
  atom_frac 0.4176230000000000 0.3269090000000000 0.5002200000000000 O
  atom_frac 0.1759820000000000 0.2069960000000000 0.5379380000000000 O
  atom_frac 0.6755120000000000 0.7069110000000000 0.5374980000000000 O
  atom_frac 0.2827650000000000 0.9437759999999999 0.5128160000000000 O
  atom_frac 0.3118270000000000 0.5900830000000000 0.5505750000000000 O
  atom_frac 0.8101480000000000 0.0899240000000000 0.5248750000000000 O
  atom_frac 0.0824470000000000 0.7616300000000000 0.5226310000000000 O
  atom_frac 0.0105490000000000 0.2721510000000000 0.5150870000000000 O
  atom_frac 0.5860350000000000 0.2636600000000000 0.5528880000000000 O
  atom_frac 0.7880990000000000 0.0759650000000000 0.5736329999999999 O
  atom_frac 0.9237040000000000 0.8294290000000000 0.5752440000000000 O
  atom_frac 0.7880190000000000 0.4464210000000000 0.5626200000000000 O
  atom_frac 0.5137800000000000 0.7728150000000000 0.5602940000000000 O
  atom_frac 0.2895480000000000 0.5763360000000000 0.5772950000000000 O
  atom_frac 0.3184280000000000 0.9629830000000000 0.6150270000000000 O
  atom_frac 0.8171079999999999 0.4624620000000000 0.6113510000000000 O
  atom_frac 0.4244040000000000 0.3294039999999999 0.5756980000000000 O
  atom_frac 0.1827630000000000 0.2094900000000000 0.6134160000000000 O
  atom_frac 0.6822940000000000 0.7094050000000000 0.6129760000000000 O
  atom_frac 0.2895460000000000 0.9462699999999999 0.5882940000000000 O
  atom_frac 0.3186090000000000 0.5925780000000000 0.6260530000000000 O
  atom_frac 0.8169300000000000 0.0924180000000000 0.6003520000000000 O
  atom_frac 0.0892280000000000 0.7641239999999999 0.5981090000000000 O
  atom_frac 0.0173300000000000 0.2746450000000000 0.5905650000000000 O
  atom_frac 0.5928160000000000 0.2661540000000000 0.6283660000000000 O
  atom_frac 0.7948800000000000 0.0784590000000000 0.6491110000000000 O
  atom_frac 0.9304849999999999 0.8319230000000000 0.6507210000000000 O
  atom_frac 0.7948009999999999 0.4489160000000000 0.6380980000000001 O
  atom_frac 0.5205620000000000 0.7753090000000000 0.6357720000000000 O
  atom_frac 0.2963280000000000 0.5788300000000000 0.6527590000000000 O
  atom_frac 0.3252080000000000 0.9654770000000000 0.6904910000000000 O
  atom_frac 0.8238879999999998 0.4649550000000000 0.6868150000000000 O
  atom_frac 0.4311850000000000 0.3318970000000000 0.6511620000000000 O
  atom_frac 0.1895430000000000 0.2119840000000000 0.6888800000000000 O
  atom_frac 0.6890740000000000 0.7118989999999999 0.6884400000000001 O
  atom_frac 0.2963260000000000 0.9487630000000000 0.6637580000000000 O
  atom_frac 0.3253889999999999 0.5950710000000000 0.7015169999999999 O
  atom_frac 0.8237100000000001 0.0949120000000000 0.6758160000000000 O
  atom_frac 0.0960080000000000 0.7666180000000001 0.6735719999999999 O
  atom_frac 0.0241100000000000 0.2771390000000000 0.6660290000000000 O
  atom_frac 0.5995970000000000 0.2686480000000000 0.7038300000000000 O
  atom_frac 0.8016600000000002 0.0809530000000000 0.7245750000000000 O
  atom_frac 0.9372650000000000 0.8344160000000000 0.7261850000000000 O
  atom_frac 0.8015810000000000 0.4514090000000000 0.7135620000000000 O
  atom_frac 0.5273420000000000 0.7778020000000000 0.7112360000000000 O
  
  -----------------------------------------------------------------------
  Completed first pass over input file geometry.in .
  -----------------------------------------------------------------------
  

  Basic array size parameters:
  | Number of species                 :        4
  | Number of atoms                   :      336
  | Number of lattice vectors         :        3
  | Max. basis fn. angular momentum   :        2
  | Max. atomic/ionic basis occupied n:        2
  | Max. number of basis fn. types    :        2
  | Max. radial fns per species/type  :        3
  | Max. logarithmic grid size        :     1301
  | Max. radial integration grid size :       36
  | Max. angular integration grid size:      302
  | Max. angular grid division number :        8
  | Radial grid for Hartree potential :     1301
  | Number of spin channels           :        1

------------------------------------------------------------
          Reading file control.in.
------------------------------------------------------------
  XC: Using PBE gradient-corrected functionals.
  Spin treatment: No spin polarisation.
  Scalar relativistic treatment of kinetic energy: on-site free-atom approximation to ZORA.
  Charge =   0.000000E+00: Neutral system requested explicitly.
  Occupation type: Gaussian broadening, width =   0.100000E-01 eV.
  Using pulay charge density mixing.
  Pulay mixing - number of memorized iterations:    8
  Charge density mixing - mixing parameter:     0.0200
  Convergence accuracy of self-consistent charge density:  0.1000E-03
  Convergence accuracy of sum of eigenvalues:  0.1000E-01
  Convergence accuracy of total energy:  0.1000E-05
  Maximum number of s.-c. iterations  : 10000
  Kohn-Sham electronic structure solved by the ELSI library.
  Number of empty states per atom:        6
  Threshold for basis singularities:  0.1000E-04
  Found k-point grid:         4         4         1
  Using dipole correction.
 
  Reading configuration options for species H                   .
  | Found nuclear charge :   1.0000
  | Found atomic mass :    1.00794000000000      amu
  | Found l_max for Hartree potential  :   4
  | Found cutoff potl. onset [A], width [A], scale factor :    3.50000    1.50000    1.00000
  | Threshold for basis-dependent cutoff potential is   0.100000E-03
  | Found data for basic radial integration grid :    24 points, outermost radius =    5.000 A
  | Found multiplier for basic radial grid :   1
  | Found angular grid specification: user-specified.
  | Specified grid contains     5 separate shells.
  | Check grid settings after all constraints further below.
  | Found free-atom valence shell :  1 s   1.000
  | No ionic wave fns used. Skipping ion_occ.
  | Found hydrogenic basis function :  2 s   2.100
  | Found hydrogenic basis function :  2 p   3.500
  Species H                   : Missing cutoff potential type.
  Defaulting to exp(1/x)/(1-x)^2 type cutoff potential.
  Species H : No 'logarithmic' tag. Using default grid for free atom:
  | Default logarithmic grid data [bohr] : 0.1000E-03 0.1000E+03 0.1012E+01
  Species H : On-site basis accuracy parameter (for Gram-Schmidt orthonormalisation) not specified.
  Using default value basis_acc =  0.1000000E-03.
  Species H                   : Using default innermost maximum threshold i_radial=  2 for radial functions.
  Species H                   : Default cutoff onset for free atom density etc. : 0.35000000E+01 AA.
  Species H                   : Basic radial grid will be enhanced according to radial_multiplier =   1, to contain    24 grid points.
 
  Reading configuration options for species C                   .
  | Found nuclear charge :   6.0000
  | Found atomic mass :    12.0107000000000      amu
  | Found l_max for Hartree potential  :   4
  | Found cutoff potl. onset [A], width [A], scale factor :    3.50000    1.50000    1.00000
  | Threshold for basis-dependent cutoff potential is   0.100000E-03
  | Found data for basic radial integration grid :    34 points, outermost radius =    5.000 A
  | Found multiplier for basic radial grid :   1
  | Found angular grid specification: user-specified.
  | Specified grid contains     5 separate shells.
  | Check grid settings after all constraints further below.
  | Found free-atom valence shell :  2 s   2.000
  | Found free-atom valence shell :  2 p   2.000
  | No ionic wave fns used. Skipping ion_occ.
  | No ionic wave fns used. Skipping ion_occ.
  | Found hydrogenic basis function :  2 p   1.700
  | Found hydrogenic basis function :  3 d   6.000
  | Found hydrogenic basis function :  2 s   4.900
  Species C                   : Missing cutoff potential type.
  Defaulting to exp(1/x)/(1-x)^2 type cutoff potential.
  Species C : No 'logarithmic' tag. Using default grid for free atom:
  | Default logarithmic grid data [bohr] : 0.1000E-03 0.1000E+03 0.1012E+01
  Species C : On-site basis accuracy parameter (for Gram-Schmidt orthonormalisation) not specified.
  Using default value basis_acc =  0.1000000E-03.
  Species C                   : Using default innermost maximum threshold i_radial=  2 for radial functions.
  Species C                   : Default cutoff onset for free atom density etc. : 0.35000000E+01 AA.
  Species C                   : Basic radial grid will be enhanced according to radial_multiplier =   1, to contain    34 grid points.
 
  Reading configuration options for species N                   .
  | Found nuclear charge :   7.0000
  | Found atomic mass :    14.0067000000000      amu
  | Found l_max for Hartree potential  :   4
  | Found cutoff potl. onset [A], width [A], scale factor :    3.50000    1.50000    1.00000
  | Threshold for basis-dependent cutoff potential is   0.100000E-03
  | Found data for basic radial integration grid :    35 points, outermost radius =    5.000 A
  | Found multiplier for basic radial grid :   1
  | Found angular grid specification: user-specified.
  | Specified grid contains     5 separate shells.
  | Check grid settings after all constraints further below.
  | Found free-atom valence shell :  2 s   2.000
  | Found free-atom valence shell :  2 p   3.000
  | No ionic wave fns used. Skipping ion_occ.
  | No ionic wave fns used. Skipping ion_occ.
  | Found hydrogenic basis function :  2 p   1.800
  | Found hydrogenic basis function :  3 d   6.800
  | Found hydrogenic basis function :  3 s   5.800
  Species N                   : Missing cutoff potential type.
  Defaulting to exp(1/x)/(1-x)^2 type cutoff potential.
  Species N : No 'logarithmic' tag. Using default grid for free atom:
  | Default logarithmic grid data [bohr] : 0.1000E-03 0.1000E+03 0.1012E+01
  Species N : On-site basis accuracy parameter (for Gram-Schmidt orthonormalisation) not specified.
  Using default value basis_acc =  0.1000000E-03.
  Species N                   : Using default innermost maximum threshold i_radial=  2 for radial functions.
  Species N                   : Default cutoff onset for free atom density etc. : 0.35000000E+01 AA.
  Species N                   : Basic radial grid will be enhanced according to radial_multiplier =   1, to contain    35 grid points.
 
  Reading configuration options for species O                   .
  | Found nuclear charge :   8.0000
  | Found atomic mass :    15.9994000000000      amu
  | Found l_max for Hartree potential  :   4
  | Found cutoff potl. onset [A], width [A], scale factor :    3.50000    1.50000    1.00000
  | Threshold for basis-dependent cutoff potential is   0.100000E-03
  | Found data for basic radial integration grid :    36 points, outermost radius =    5.000 A
  | Found multiplier for basic radial grid :   1
  | Found angular grid specification: user-specified.
  | Specified grid contains     5 separate shells.
  | Check grid settings after all constraints further below.
  | Found free-atom valence shell :  2 s   2.000
  | Found free-atom valence shell :  2 p   4.000
  | No ionic wave fns used. Skipping ion_occ.
  | No ionic wave fns used. Skipping ion_occ.
  | Found hydrogenic basis function :  2 p   1.800
  | Found hydrogenic basis function :  3 d   7.600
  | Found hydrogenic basis function :  3 s   6.400
  Species O                   : Missing cutoff potential type.
  Defaulting to exp(1/x)/(1-x)^2 type cutoff potential.
  Species O : No 'logarithmic' tag. Using default grid for free atom:
  | Default logarithmic grid data [bohr] : 0.1000E-03 0.1000E+03 0.1012E+01
  Species O : On-site basis accuracy parameter (for Gram-Schmidt orthonormalisation) not specified.
  Using default value basis_acc =  0.1000000E-03.
  Species O                   : Using default innermost maximum threshold i_radial=  2 for radial functions.
  Species O                   : Default cutoff onset for free atom density etc. : 0.35000000E+01 AA.
  Species O                   : Basic radial grid will be enhanced according to radial_multiplier =   1, to contain    36 grid points.
 
  Finished reading input file 'control.in'. Consistency checks are next.
 
  MPI_IN_PLACE appears to work with this MPI implementation.
  | Keeping use_mpi_in_place .true. (see manual).
  Target number of points in a grid batch is not set. Defaulting to  100
  Method for grid partitioning is not set. Defaulting to parallel hash+maxmin partitioning.
  Batch size limit is not set. Defaulting to    200
  By default, will store active basis functions for each batch.
  If in need of memory, prune_basis_once .false. can be used to disable this option.
  communication_type for Hartree potential was not specified.
  Defaulting to calc_hartree .
  Pulay mixer: Number of initial linear mixing iterations not set.
  Defaulting to    0 iterations.
  Work space size for distributed Hartree potential not set.
  Defaulting to   0.200000E+03 MB.
  Algorithm-dependent basis array size parameters:
  | n_max_pulay                         :        8
  Presetting      1001 iterations before the initial mixing cycle
  is restarted anyway using the sc_init_iter criterion / keyword.
  Presetting a factor      1.000 between actual scf density residual
  and density convergence criterion sc_accuracy_rho below which sc_init_iter
  takes no effect.
  Calculation of forces was not defined in control.in. No forces will be calculated.
  Geometry relaxation not requested: no relaxation will be performed.
  No accuracy limit for integral partition fn. given. Defaulting to  0.1000E-14.
  No threshold value for u(r) in integrations given. Defaulting to  0.1000E-05.
  No accuracy for occupation numbers given. Defaulting to  0.1000E-12.
  No threshold value for occupation numbers given. Defaulting to  0.0000E+00.
  No accuracy for fermi level given. Defaulting to  0.1000E-19.
  Maximum # of iterations to find E_F not set. Defaulting to  200.
  Maximum number of tasks per SMP nodenot specified.
  Presetting   512 tasks.
  Will not use alltoall communication since running on < 1024 CPUs.
  partition_type (choice of integration weights) for integrals was not specified.
  | Using a version of the partition function of Stratmann and coworkers ('stratmann_smoother').
  | At each grid point, the set of atoms used to build the partition table is smoothly restricted to
  | only those atoms whose free-atom density would be non-zero at that grid point.
  Partitioning for Hartree potential was not defined. Using partition_type for integrals.
  | Adjusted default value of keyword multip_moments_threshold to:       0.10000000E-11
  | This value may affect high angular momentum components of the Hartree potential in periodic systems.
  Angular momentum expansion for Kerker preconditioner not set explicitly.
  | Using default value of   0
  No explicit requirement for turning off preconditioner.
  | By default, it will be turned off when the charge convergence reaches
  | sc_accuracy_rho  =   0.100000E-03
  | sc_accuracy_eev  =   0.100000E-01
  | sc_accuracy_etot =   0.100000E-05
  No special mixing parameter while Kerker preconditioner is on.
  Using default: charge_mix_param =     0.0200.
  No q(lm)/r^(l+1) cutoff set for long-range Hartree potential.
  | Using default value of  0.100000E-09 .
  | Verify using the multipole_threshold keyword.
  Defaulting to new monopole extrapolation.
  Density update method: automatic selection selected.
  Using density matrix based charge density update.
  Using density matrix based charge density update.
  Using packed matrix style: index .
  Defaulting to use time-reversal symmetry for k-point grid.
  Using the following vdw_convergence_threshold for supercell sums
  over the Tkatchenko-Scheffler correction:  0.336000E-05 eV.
------------------------------------------------------------


------------------------------------------------------------
          Reading geometry description geometry.in.
------------------------------------------------------------
  Input structure read successfully.
  The structure contains      336 atoms,  and a total of       1824.000 electrons.

  Input geometry:
  | Unit cell:
  |        6.59576000        0.00000000        0.00000000
  |       -1.54504400        7.23284900        0.00000000
  |        0.00000000        0.00000000      146.08415900
  | Atomic structure:
  |       Atom                x [A]            y [A]            z [A]
  |    1: Species H             3.43988653        5.57973073       42.45132618
  |    2: Species H             4.46887493        5.41112579       47.97549866
  |    3: Species H             1.92660981        1.78915369       42.99432100
  |    4: Species H             4.36272633        2.84758712       40.54697309
  |    5: Species H             5.08067060        0.90591434       46.06705520
  |    6: Species H             1.00531910        4.52238223       44.89867410
  |    7: Species H             2.22694185        6.00279453       41.22261232
  |    8: Species H            -0.91947498        4.98605849       46.74269444
  |    9: Species H             3.14073595        1.36695060       44.21894451
  |   10: Species H             4.79198593        4.01750768       41.83397453
  |   11: Species H             3.11446889        6.97531618       47.36413645
  |   12: Species H             0.57465308        3.35166606       43.61371784
  |   13: Species H             0.93879398        1.97717160       48.49628868
  |   14: Species H             0.32608115        6.48201418       50.40268696
  |   15: Species H            -0.26871298        2.40238356       49.72909290
  |   16: Species H             2.29306810        0.41298121       49.10765089
  |   17: Species H             3.48075399        5.59776222       53.47542116
  |   18: Species H             4.50974744        5.42916451       58.99959363
  |   19: Species H             1.96747572        1.80719242       54.01841598
  |   20: Species H             4.40359379        2.86561861       51.57106806
  |   21: Species H             5.12153651        0.92395306       57.09115018
  |   22: Species H             1.04618501        4.54042096       55.92276908
  |   23: Species H             2.26780930        6.02082603       52.24670730
  |   24: Species H            -0.87860906        5.00409721       57.76678941
  |   25: Species H             3.18160187        1.38498932       55.24303948
  |   26: Species H             4.83285184        4.03554640       52.85806950
  |   27: Species H             3.15534295        6.99334767       58.38823143
  |   28: Species H             0.61551899        3.36970479       54.63781281
  |   29: Species H             0.97965989        1.99521033       59.52038366
  |   30: Species H             0.36694706        6.50005290       61.42678193
  |   31: Species H            -0.22784552        2.42041506       60.75304179
  |   32: Species H             2.33393401        0.43101994       60.13174586
  |   33: Species H             3.52163309        5.61580095       64.50156131
  |   34: Species H             4.55061995        5.44720324       70.02558770
  |   35: Species H             2.00834823        1.82523114       65.04455613
  |   36: Species H             4.44446476        2.88366457       62.59720822
  |   37: Species H             5.16240902        0.94199179       68.11729033
  |   38: Species H             1.08706412        4.55845969       66.94890923
  |   39: Species H             2.30868841        6.03886475       63.27284745
  |   40: Species H            -0.83772996        5.02213594       68.79292957
  |   41: Species H             3.22248097        1.40302805       66.26917964
  |   42: Species H             4.87373094        4.05358513       63.88420966
  |   43: Species H             3.19621391        7.01139363       69.41437158
  |   44: Species H             0.65639150        3.38774351       65.66380688
  |   45: Species H             1.02053240        2.01324905       70.54652381
  |   46: Species H             0.40782617        6.51809163       72.45292209
  |   47: Species H            -0.18696796        2.43846101       71.77918195
  |   48: Species H             2.37480652        0.44905866       71.15773993
  |   49: Species H             3.56249900        5.63383967       75.52565629
  |   50: Species H             4.59148586        5.46524196       81.04968268
  |   51: Species H             2.04922074        1.84326987       76.06850502
  |   52: Species H             4.48533221        2.90169606       73.62130319
  |   53: Species H             5.20327493        0.96003051       79.14138531
  |   54: Species H             1.12793003        4.57649841       77.97300420
  |   55: Species H             2.34955432        6.05690348       74.29694243
  |   56: Species H            -0.79686405        5.04017466       79.81702454
  |   57: Species H             3.26334688        1.42106677       77.29327461
  |   58: Species H             4.91459840        4.07161662       74.90830463
  |   59: Species H             3.23708137        7.02942512       80.43832047
  |   60: Species H             0.69726401        3.40578224       76.68790186
  |   61: Species H             1.06140645        2.03128055       81.57061879
  |   62: Species H             0.44869208        6.53613035       83.47701706
  |   63: Species H            -0.14610050        2.45649251       82.80327692
  |   64: Species H             2.41567243        0.46709739       82.18183491
  |   65: Species H             3.60337151        5.65187840       86.55165036
  |   66: Species H             4.63236496        5.48328069       92.07582283
  |   67: Species H             2.09009325        1.86130859       87.09464518
  |   68: Species H             4.52621132        2.91973479       84.64729726
  |   69: Species H             5.24415403        0.97806924       90.16737938
  |   70: Species H             1.16880254        4.59453714       88.99899827
  |   71: Species H             2.39042683        6.07494220       85.32308258
  |   72: Species H            -0.75599154        5.05821339       90.84316469
  |   73: Species H             3.30421939        1.43910550       88.31926868
  |   74: Species H             4.95547091        4.08965534       85.93429870
  |   75: Species H             3.27796047        7.04746385       91.46446062
  |   76: Species H             0.73813652        3.42382096       87.71404201
  |   77: Species H             1.10227896        2.04931927       92.59661286
  |   78: Species H             0.48956459        6.55416908       94.50301113
  |   79: Species H            -0.10522799        2.47453123       93.82941707
  |   80: Species H             2.45655154        0.48513611       93.20797506
  |   81: Species H             3.64423743        5.66991713       97.57574533
  |   82: Species H             4.67323242        5.50131218      103.09991780
  |   83: Species H             2.13095916        1.87934732       98.11874015
  |   84: Species H             4.56707723        2.93777351       95.67139223
  |   85: Species H             5.28501995        0.99610796      101.19147435
  |   86: Species H             1.20967000        4.61256863      100.02309325
  |   87: Species H             2.43129934        6.09298093       96.34703147
  |   88: Species H            -0.71511748        5.07624488      101.86711359
  |   89: Species H             3.34508531        1.45714423       99.34336365
  |   90: Species H             4.99634342        4.10769407       96.95839367
  |   91: Species H             3.31882639        7.06550257      102.48855560
  |   92: Species H             0.77900243        3.44185969       98.73813698
  |   93: Species H             1.14314487        2.06735800      103.62070783
  |   94: Species H             0.53043864        6.57220057      105.52710611
  |   95: Species H            -0.06436208        2.49256996      104.85351205
  |   96: Species H             2.49741900        0.50316761      104.23207004
  |   97: Species C             2.51190953        5.25258897       41.96676503
  |   98: Species C            -1.20114159        5.73797823       47.48684715
  |   99: Species C             2.85504987        2.11650521       43.47493789
  |  100: Species C             4.05306850        3.27943160       41.50426258
  |  101: Species C             5.39667623        0.47850359       47.02434470
  |  102: Species C             1.31398812        4.08988680       43.94153069
  |  103: Species C             0.01290313        1.65039148       48.98494020
  |  104: Species C             0.01059033        6.90979380       49.44554355
  |  105: Species C             2.55277544        5.27062770       52.99086000
  |  106: Species C            -1.16027414        5.75600973       58.51094212
  |  107: Species C             2.89592238        2.13454393       54.49903286
  |  108: Species C             4.09394101        3.29747032       52.52821147
  |  109: Species C             5.43754874        0.49654232       58.04829359
  |  110: Species C             1.35486217        4.10791829       54.96562567
  |  111: Species C             0.05376905        1.66843021       60.00903517
  |  112: Species C             0.05145779        6.92782529       60.46949244
  |  113: Species C             2.59364795        5.28866642       64.01685407
  |  114: Species C            -1.11940163        5.77404845       69.53693619
  |  115: Species C             2.93679489        2.15258266       65.52517301
  |  116: Species C             4.13481351        3.31550905       63.55435163
  |  117: Species C             5.47842125        0.51458104       69.07443374
  |  118: Species C             1.39573468        4.12595701       65.99161973
  |  119: Species C             0.09464815        1.68646894       71.03517532
  |  120: Species C             0.09233030        6.94586402       71.49563259
  |  121: Species C             2.63452201        5.30669791       75.04094905
  |  122: Species C            -1.07852912        5.79208718       80.56103116
  |  123: Species C             2.97766081        2.17062138       76.54912191
  |  124: Species C             4.17567943        3.33354778       74.57844660
  |  125: Species C             5.51928871        0.53261253       80.09852872
  |  126: Species C             1.43660059        4.14399574       77.01571471
  |  127: Species C             0.13551407        1.70450766       82.05927030
  |  128: Species C             0.13319621        6.96390274       82.51972757
  |  129: Species C             2.67539451        5.32473664       86.06708920
  |  130: Species C            -1.03765661        5.81012590       91.58717132
  |  131: Species C             3.01853991        2.18866011       87.57526206
  |  132: Species C             4.21655853        3.35158650       85.60458675
  |  133: Species C             5.56016781        0.55065126       91.12466887
  |  134: Species C             1.47747970        4.16203446       88.04185486
  |  135: Species C             0.17638657        1.72254639       93.08526437
  |  136: Species C             0.17407532        6.98194147       93.54586772
  |  137: Species C             2.71626043        5.34277537       97.09118418
  |  138: Species C            -0.99679070        5.82816463      102.61126629
  |  139: Species C             3.05940737        2.20669160       98.59935703
  |  140: Species C             4.25742444        3.36962523       96.62868173
  |  141: Species C             5.60103373        0.56868999      102.14876384
  |  142: Species C             1.51834561        4.18007319       99.06594984
  |  143: Species C             0.21725908        1.74058511      104.10935934
  |  144: Species C             0.21494123        6.99998019      104.56996270
  |  145: Species N             2.79363163        3.95972444       41.35131247
  |  146: Species N            -1.48650501        7.02874523       46.86745031
  |  147: Species N             2.57371727        3.40973861       44.09228954
  |  148: Species N             1.42773193        5.18351526       42.93997770
  |  149: Species N             3.93868264        2.18507261       42.50362431
  |  150: Species N             5.51941546        1.57778815       48.01771698
  |  151: Species N             1.86791856        3.42273604       40.45450182
  |  152: Species N             0.98095723        0.33240727       45.96654930
  |  153: Species N             3.49941734        3.94651003       44.98924628
  |  154: Species N             0.24821025        5.83999757       42.64839372
  |  155: Species N             1.06461343        5.14996208       48.15839602
  |  156: Species N             5.11830534        1.52873496       42.79520829
  |  157: Species N             0.29801817        0.35955216       49.60433703
  |  158: Species N            -0.11176445        5.81087089       48.45202518
  |  159: Species N             4.42612692        7.05581779       50.50319286
  |  160: Species N             4.34292112        2.23862463       48.31134614
  |  161: Species N             2.83450569        3.97775594       52.37540744
  |  162: Species N            -1.44563909        7.04678396       57.89154529
  |  163: Species N             2.61458473        3.42777010       55.11638452
  |  164: Species N             1.46860444        5.20155399       53.96407267
  |  165: Species N             3.97954856        2.20311134       53.52771929
  |  166: Species N             5.56028952        1.59581964       59.04181195
  |  167: Species N             1.90878447        3.44077476       51.47859679
  |  168: Species N             1.02182468        0.35043877       56.99064428
  |  169: Species N             3.54028480        3.96454152       56.01334125
  |  170: Species N             0.28907617        5.85803629       53.67248869
  |  171: Species N             1.10548089        5.16799357       59.18249100
  |  172: Species N             5.15917785        1.54677369       53.81930327
  |  173: Species N             0.33888563        0.37758365       60.62843200
  |  174: Species N            -0.07089854        5.82890961       59.47612016
  |  175: Species N             4.46699283        7.07385651       61.52728784
  |  176: Species N             4.38378704        2.25666335       59.33544111
  |  177: Species N             2.87537665        3.99580190       63.40154760
  |  178: Species N            -1.40475999        7.06482268       68.91753935
  |  179: Species N             2.65546229        3.44581606       66.14252467
  |  180: Species N             1.50947695        5.21959271       64.99021282
  |  181: Species N             4.02042766        2.22115007       64.55385944
  |  182: Species N             5.60116203        1.61385836       70.06780602
  |  183: Species N             1.94965698        3.45881349       62.50459086
  |  184: Species N             1.06269719        0.36847749       68.01663835
  |  185: Species N             3.58115731        3.98258025       67.03933532
  |  186: Species N             0.32995527        5.87607502       64.69862884
  |  187: Species N             1.14635999        5.18603229       70.20863115
  |  188: Species N             5.20005036        1.56481242       64.84544342
  |  189: Species N             0.37976473        0.39562237       71.65457216
  |  190: Species N            -0.03002603        5.84694834       70.50226031
  |  191: Species N             4.50787193        7.09189524       72.55342799
  |  192: Species N             4.42466614        2.27470208       70.36143518
  |  193: Species N             2.91624411        4.01383339       74.42564257
  |  194: Species N            -1.36389408        7.08286141       79.94163433
  |  195: Species N             2.69632975        3.46384755       77.16661965
  |  196: Species N             1.55034287        5.23763144       76.01430780
  |  197: Species N             4.06129357        2.23918879       75.57795442
  |  198: Species N             5.64202794        1.63189709       81.09190100
  |  199: Species N             1.99053103        3.47684498       73.52868583
  |  200: Species N             1.10356970        0.38651622       79.04073332
  |  201: Species N             3.62202981        4.00061897       78.06343030
  |  202: Species N             0.37082118        5.89411375       75.72272382
  |  203: Species N             1.18722590        5.20407102       81.23272613
  |  204: Species N             5.24091627        1.58285114       75.86953840
  |  205: Species N             0.42063064        0.41366110       82.67866713
  |  206: Species N             0.01084143        5.86497983       81.52635529
  |  207: Species N             4.54873939        7.10992673       83.57752296
  |  208: Species N             4.46553205        2.29274080       81.38553016
  |  209: Species N             2.95712321        4.03187211       85.45178272
  |  210: Species N            -1.32302157        7.10090014       90.96777448
  |  211: Species N             2.73720226        3.48188628       88.19261371
  |  212: Species N             1.59122197        5.25567016       87.04030187
  |  213: Species N             4.10216608        2.25722752       86.60394848
  |  214: Species N             5.68290705        1.64993582       92.11804115
  |  215: Species N             2.03140354        3.49488371       84.55482599
  |  216: Species N             1.14444221        0.40455494       90.06687347
  |  217: Species N             3.66290232        4.01865770       89.08957045
  |  218: Species N             0.41169369        5.91215247       86.74871789
  |  219: Species N             1.22809841        5.22210975       92.25886628
  |  220: Species N             5.28179537        1.60088987       86.89553247
  |  221: Species N             0.46150315        0.43169983       93.70466120
  |  222: Species N             0.05172053        5.88301856       92.55234936
  |  223: Species N             4.58961190        7.12796546       94.60351703
  |  224: Species N             4.50640456        2.31077953       92.41167031
  |  225: Species N             2.99798913        4.04991084       96.47573161
  |  226: Species N            -1.28215565        7.11893886      101.99186946
  |  227: Species N             2.77806817        3.49992500       99.21670869
  |  228: Species N             1.63208943        5.27370166       98.06439684
  |  229: Species N             4.14303199        2.27526624       97.62804346
  |  230: Species N             5.72377296        1.66797454      103.14213613
  |  231: Species N             2.07226945        3.51292243       95.57892096
  |  232: Species N             1.18530812        0.42259367      101.09096845
  |  233: Species N             3.70376824        4.03669642      100.11366543
  |  234: Species N             0.45256115        5.93018396       97.77281286
  |  235: Species N             1.26896432        5.24014847      103.28296125
  |  236: Species N             5.32266129        1.61892859       97.91962744
  |  237: Species N             0.50237566        0.44973855      104.72875618
  |  238: Species N             0.09258645        5.90105728      103.57644433
  |  239: Species N             4.63047781        7.14600418      105.62761201
  |  240: Species N             4.54727202        2.32881102      103.43576528
  |  241: Species O             0.85583965        4.09640359       40.23333040
  |  242: Species O             0.44893857        6.89296296       45.74537789
  |  243: Species O             4.51144068        3.27276291       45.20837252
  |  244: Species O             2.12683981        2.31037449       40.00003400
  |  245: Species O             0.71830618        1.44305464       45.51003631
  |  246: Species O             3.24070055        5.05887158       45.44561319
  |  247: Species O             0.28426370        6.77207312       41.83996398
  |  248: Species O             1.02242597        4.21387229       47.35610182
  |  249: Species O             5.08199276        0.59629777       43.60159285
  |  250: Species O            -0.75556371        5.45464584       43.27378000
  |  251: Species O             6.12224247        1.91431091       42.17186719
  |  252: Species O             3.33536898        1.85289679       47.69399448
  |  253: Species O             4.95813012        0.49533443       50.72451036
  |  254: Species O             4.68841466        5.94501854       50.95970586
  |  255: Species O             4.38523823        3.17478674       49.11568552
  |  256: Species O             2.07213206        5.53553802       48.77589376
  |  257: Species O             0.89670711        4.11443509       51.25742537
  |  258: Species O             0.48980603        6.91099445       56.76932678
  |  259: Species O             4.55230660        3.29080164       56.23246749
  |  260: Species O             2.16770573        2.32841322       51.02412897
  |  261: Species O             0.75917209        1.46109336       56.53413128
  |  262: Species O             3.28156646        5.07691030       56.46970817
  |  263: Species O             0.32512961        6.79011185       52.86405895
  |  264: Species O             1.06329189        4.23191102       58.38019680
  |  265: Species O             5.12286681        0.61432926       54.62568783
  |  266: Species O            -0.71469625        5.47267733       54.29787497
  |  267: Species O             6.16310838        1.93234964       53.19596216
  |  268: Species O             3.37623489        1.87093552       58.71794337
  |  269: Species O             4.99899603        0.51337316       61.74845925
  |  270: Species O             4.72928058        5.96305726       61.98380083
  |  271: Species O             4.42610414        3.19282547       60.13978049
  |  272: Species O             2.11299797        5.55357675       59.79984265
  |  273: Species O             0.93757808        4.13248104       62.28341944
  |  274: Species O             0.53067854        6.92903318       67.79546693
  |  275: Species O             4.59317911        3.30884036       67.25860765
  |  276: Species O             2.20858483        2.34645194       62.05012304
  |  277: Species O             0.80005120        1.47913209       67.56027143
  |  278: Species O             3.32243897        5.09494903       67.49584832
  |  279: Species O             0.36600872        6.80815057       63.89019911
  |  280: Species O             1.10416440        4.24994974       69.40633695
  |  281: Species O             5.16373778        0.63237522       65.65182798
  |  282: Species O            -0.67382375        5.49071606       65.32401513
  |  283: Species O            -0.39177251        1.95038836       64.22195623
  |  284: Species O             3.41711400        1.88897424       69.74408353
  |  285: Species O             5.03987513        0.53141188       72.77459940
  |  286: Species O             4.77015309        5.98109599       73.00994099
  |  287: Species O             4.46697665        3.21086419       71.16592065
  |  288: Species O             2.15387048        5.57161547       70.82598281
  |  289: Species O             0.97844553        4.15051254       73.30751442
  |  290: Species O             0.57155105        6.94707190       78.81956190
  |  291: Species O             4.63404502        3.32687909       78.28270262
  |  292: Species O             2.24945229        2.36448343       73.07421801
  |  293: Species O             0.84091711        1.49717081       78.58422032
  |  294: Species O             3.36330643        5.11298052       78.51994329
  |  295: Species O             0.40687463        6.82618930       74.91429408
  |  296: Species O             1.14503185        4.26798124       80.43028584
  |  297: Species O             5.20460524        0.65040671       76.67592296
  |  298: Species O            -0.63295124        5.50875478       76.34811010
  |  299: Species O            -0.35090660        1.96842709       75.24605121
  |  300: Species O             3.45797991        1.90701297       80.76817850
  |  301: Species O             5.08074259        0.54944337       83.79869438
  |  302: Species O             4.81102560        5.99913471       84.03403596
  |  303: Species O             4.50784411        3.22889568       82.18986954
  |  304: Species O             2.19473639        5.58965420       81.85007778
  |  305: Species O             1.01932464        4.16855126       84.33365457
  |  306: Species O             0.61242356        6.96511063       89.84570206
  |  307: Species O             4.67492412        3.34491781       89.30869669
  |  308: Species O             2.29032325        2.38252939       84.10035817
  |  309: Species O             0.88178962        1.51520954       89.61036048
  |  310: Species O             3.40418553        5.13101924       89.54608345
  |  311: Species O             0.44774714        6.84422802       85.94043423
  |  312: Species O             1.18590941        4.28602719       91.45642599
  |  313: Species O             5.24548434        0.66844544       87.70191702
  |  314: Species O            -0.59207873        5.52679351       87.37425026
  |  315: Species O            -0.31003409        1.98646581       86.27219136
  |  316: Species O             3.49885242        1.92505169       91.79431865
  |  317: Species O             5.12161510        0.56748210       94.82483453
  |  318: Species O             4.85189810        6.01717344       95.06003003
  |  319: Species O             4.54872167        3.24694164       93.21600969
  |  320: Species O             2.23561550        5.60769293       92.87621794
  |  321: Species O             1.06019055        4.18658999       95.35774954
  |  322: Species O             0.65328947        6.98314935      100.86979703
  |  323: Species O             4.71579158        3.36294931      100.33279166
  |  324: Species O             2.33119731        2.40056088       95.12445314
  |  325: Species O             0.92265553        1.53324826      100.63445545
  |  326: Species O             3.44505145        5.14905797      100.57017842
  |  327: Species O             0.48861460        6.86225952       96.96452921
  |  328: Species O             1.22677687        4.30405869      102.48052097
  |  329: Species O             5.28635025        0.68648416       98.72601200
  |  330: Species O            -0.55121282        5.54483223       98.39819915
  |  331: Species O            -0.26916818        2.00450454       97.29628633
  |  332: Species O             3.53972493        1.94309042      102.81841363
[...]
  | Atom   324: O
  |   Hirshfeld charge        :     -0.14080290
  |   Free atom volume        :     23.60491416
  |   Hirshfeld volume        :     21.65305932
  |   Hirshfeld dipole vector :     -0.00696613       0.03315251       0.01136946
  |   Hirshfeld dipole moment :      0.03573346
  |   Hirshfeld second moments:      0.01767466      -0.00013651      -0.01403835
  |                                 -0.00013651       0.06053368       0.01240902
  |                                 -0.01403835       0.01240902       0.04194825
  ----------------------------------------------------------------------
  | Atom   325: O
  |   Hirshfeld charge        :     -0.13998767
  |   Free atom volume        :     23.60491416
  |   Hirshfeld volume        :     21.63886869
  |   Hirshfeld dipole vector :      0.00732678      -0.03285183       0.01086043
  |   Hirshfeld dipole moment :      0.03536769
  |   Hirshfeld second moments:      0.01830620      -0.00020087       0.01413588
  |                                 -0.00020087       0.06091323      -0.01234240
  |                                  0.01413588      -0.01234240       0.04245990
  ----------------------------------------------------------------------
  | Atom   326: O
  |   Hirshfeld charge        :     -0.14116346
  |   Free atom volume        :     23.60491416
  |   Hirshfeld volume        :     21.65609852
  |   Hirshfeld dipole vector :      0.00697207      -0.03319054      -0.01137988
  |   Hirshfeld dipole moment :      0.03577322
  |   Hirshfeld second moments:      0.01741201      -0.00014116      -0.01399213
  |                                 -0.00014116       0.06043475       0.01253555
  |                                 -0.01399213       0.01253555       0.04181758
  ----------------------------------------------------------------------
  | Atom   327: O
  |   Hirshfeld charge        :     -0.15409749
  |   Free atom volume        :     23.60491416
  |   Hirshfeld volume        :     21.86187037
  |   Hirshfeld dipole vector :      0.02022073      -0.03379524       0.02435997
  |   Hirshfeld dipole moment :      0.04630771
  |   Hirshfeld second moments:     -0.00897000       0.00828239       0.00340173
  |                                  0.00828239       0.04899674      -0.00368832
  |                                  0.00340173      -0.00368832       0.05803138
  ----------------------------------------------------------------------
  | Atom   328: O
  |   Hirshfeld charge        :     -0.15435691
  |   Free atom volume        :     23.60491416
  |   Hirshfeld volume        :     21.83261924
  |   Hirshfeld dipole vector :     -0.01950883       0.03408702       0.02423181
  |   Hirshfeld dipole moment :      0.04614867
  |   Hirshfeld second moments:     -0.00889064       0.00820506      -0.00310434
  |                                  0.00820506       0.04937461       0.00351146
  |                                 -0.00310434       0.00351146       0.05929243
  ----------------------------------------------------------------------
  | Atom   329: O
  |   Hirshfeld charge        :     -0.15388959
  |   Free atom volume        :     23.60491416
  |   Hirshfeld volume        :     21.85804362
  |   Hirshfeld dipole vector :     -0.02016659       0.03383365      -0.02446886
  |   Hirshfeld dipole moment :      0.04636952
  |   Hirshfeld second moments:     -0.00875672       0.00824895       0.00338542
  |                                  0.00824895       0.04916930      -0.00350396
  |                                  0.00338542      -0.00350396       0.05811905
  ----------------------------------------------------------------------
  | Atom   330: O
  |   Hirshfeld charge        :     -0.16737781
  |   Free atom volume        :     23.60491416
  |   Hirshfeld volume        :     21.91795377
  |   Hirshfeld dipole vector :      0.04037384      -0.00482252      -0.03000485
  |   Hirshfeld dipole moment :      0.05053310
  |   Hirshfeld second moments:      0.04424395       0.02772517      -0.00885725
  |                                  0.02772517       0.01153940       0.01343630
  |                                 -0.00885725       0.01343630       0.03252705
  ----------------------------------------------------------------------
  | Atom   331: O
  |   Hirshfeld charge        :     -0.16710537
  |   Free atom volume        :     23.60491416
  |   Hirshfeld volume        :     21.91295615
  |   Hirshfeld dipole vector :     -0.04037770       0.00469759       0.02995201
  |   Hirshfeld dipole moment :      0.05049306
  |   Hirshfeld second moments:      0.04444399       0.02765585      -0.00874675
  |                                  0.02765585       0.01171593       0.01352104
  |                                 -0.00874675       0.01352104       0.03272505
  ----------------------------------------------------------------------
  | Atom   332: O
  |   Hirshfeld charge        :     -0.17043484
  |   Free atom volume        :     23.60491416
  |   Hirshfeld volume        :     21.90122836
  |   Hirshfeld dipole vector :      0.04116167      -0.00464905       0.03030337
  |   Hirshfeld dipole moment :      0.05132437
  |   Hirshfeld second moments:      0.04433326       0.02740950       0.00820135
  |                                  0.02740950       0.01063021      -0.01320836
  |                                  0.00820135      -0.01320836       0.03287116
  ----------------------------------------------------------------------
  | Atom   333: O
  |   Hirshfeld charge        :     -0.17889368
  |   Free atom volume        :     23.60491416
  |   Hirshfeld volume        :     22.30647136
  |   Hirshfeld dipole vector :      0.04743578      -0.01916355      -0.02798132
  |   Hirshfeld dipole moment :      0.05831252
  |   Hirshfeld second moments:      0.04351370      -0.01863754       0.01406224
  |                                 -0.01863754       0.00323143       0.02285410
  |                                  0.01406224       0.02285410       0.00167979
  ----------------------------------------------------------------------
  | Atom   334: O
  |   Hirshfeld charge        :     -0.16441396
  |   Free atom volume        :     23.60491416
  |   Hirshfeld volume        :     22.31244178
  |   Hirshfeld dipole vector :      0.00948564       0.04863021      -0.03594328
  |   Hirshfeld dipole moment :      0.06121106
  |   Hirshfeld second moments:     -0.00264317      -0.00373888       0.03035977
  |                                 -0.00373888       0.04377800      -0.00146583
  |                                  0.03035977      -0.00146583       0.01359927
  ----------------------------------------------------------------------
  | Atom   335: O
  |   Hirshfeld charge        :     -0.16028702
  |   Free atom volume        :     23.60491416
  |   Hirshfeld volume        :     22.12452000
  |   Hirshfeld dipole vector :      0.02316053      -0.03266367      -0.03948066
  |   Hirshfeld dipole moment :      0.05623209
  |   Hirshfeld second moments:     -0.01274241       0.01094653       0.00038778
  |                                  0.01094653       0.04701475       0.00171661
  |                                  0.00038778       0.00171661       0.03816478
  ----------------------------------------------------------------------
  | Atom   336: O
  |   Hirshfeld charge        :     -0.16132972
  |   Free atom volume        :     23.60491416
  |   Hirshfeld volume        :     21.87393133
  |   Hirshfeld dipole vector :     -0.04001892       0.00598717      -0.03108054
  |   Hirshfeld dipole moment :      0.05102313
  |   Hirshfeld second moments:      0.04805683       0.03028533       0.00434368
  |                                  0.03028533       0.01297430      -0.01367230
  |                                  0.00434368      -0.01367230       0.03190156
  ----------------------------------------------------------------------

  Converging periodic supercell size for vdw calculation.
  Convergence accuracy (and time!) can be adjusted using the vdw_convergence_threshold keyword.
  | Shell number:     1
  |   VDW energy change:  -0.108693E+02 eV.
  |   Not converged.
  | Shell number:     2
  |   VDW energy change:  -0.244997E+00 eV.
  |   Not converged.
  | Shell number:     3
  |   VDW energy change:  -0.340326E-01 eV.
  |   Not converged.
  | Shell number:     4
  |   VDW energy change:  -0.927383E-02 eV.
  |   Not converged.
  | Shell number:     5
  |   VDW energy change:  -0.344186E-02 eV.
  |   Not converged.
  | Shell number:     6
  |   VDW energy change:  -0.153365E-02 eV.
  |   Not converged.
  | Shell number:     7
  |   VDW energy change:  -0.772762E-03 eV.
  |   Not converged.
  | Shell number:     8
  |   VDW energy change:  -0.425864E-03 eV.
  |   Not converged.
  | Shell number:     9
  |   VDW energy change:  -0.251462E-03 eV.
  |   Not converged.
  | Shell number:    10
  |   VDW energy change:  -0.156933E-03 eV.
  |   Not converged.
  | Shell number:    11
  |   VDW energy change:  -0.102520E-03 eV.
  |   Not converged.
  | Shell number:    12
  |   VDW energy change:  -0.696034E-04 eV.
  |   Not converged.
  | Shell number:    13
  |   VDW energy change:  -0.488390E-04 eV.
  |   Not converged.
  | Shell number:    14
  |   VDW energy change:  -0.352594E-04 eV.
  |   Not converged.
  | Shell number:    15
  |   VDW energy change:  -0.260949E-04 eV.
  |   Not converged.
  | Shell number:    16
  |   VDW energy change:  -0.197364E-04 eV.
  |   Not converged.
  | Shell number:    17
  |   VDW energy change:  -0.152151E-04 eV.
  |   Not converged.
  | Shell number:    18
  |   VDW energy change:  -0.119289E-04 eV.
  |   Not converged.
  | Shell number:    19
  |   VDW energy change:  -0.949319E-05 eV.
  |   Not converged.
  | Shell number:    20
  |   VDW energy change:  -0.765572E-05 eV.
  |   Not converged.
  | Shell number:    21
  |   VDW energy change:  -0.624741E-05 eV.
  |   Not converged.
  | Shell number:    22
  |   VDW energy change:  -0.515249E-05 eV.
  |   Not converged.
  | Shell number:    23
  |   VDW energy change:  -0.429013E-05 eV.
  |   Not converged.
  | Shell number:    24
  |   VDW energy change:  -0.360295E-05 eV.
  |   Not converged.
  | Shell number:    25
  |   VDW energy change:  -0.304950E-05 eV.
  |   Converged.

  Total energy components:
  | Sum of eigenvalues            :       -8115.17279731 Ha     -220825.08727168 eV
  | XC energy correction          :       -1768.97530070 Ha      -48136.26707841 eV
  | XC potential correction       :        2274.64683283 Ha       61896.28956985 eV
  | Free-atom electrostatic energy:       -6644.90828370 Ha     -180817.15427488 eV
  | Hartree energy correction     :        -110.53187358 Ha       -3007.72531156 eV
  | vdW energy correction         :          -0.73996119 Ha         -20.13536847 eV
  | Entropy correction            :           0.00000000 Ha           0.00000000 eV
  | ---------------------------
  | Total energy                  :      -14365.68138366 Ha     -390910.07973515 eV
  | Total energy, T -> 0          :      -14365.68138366 Ha     -390910.07973515 eV  <-- do not rely on this value for anything but (periodic) metals
  | Electronic free energy        :      -14365.68138366 Ha     -390910.07973515 eV

  Derived energy quantities:
  | Kinetic energy                :       14341.78101576 Ha      390259.71763454 eV
  | Electrostatic energy          :      -26937.74713752 Ha     -733013.39492280 eV
  | Energy correction for multipole
  | error in Hartree potential    :           2.51527672 Ha          68.44416203 eV
  | Sum of eigenvalues per atom                           :        -657.21752164 eV
  | Total energy (T->0) per atom                          :       -1163.42285635 eV  <-- do not rely on this value for anything but (periodic) metals
  | Electronic free energy per atom                       :       -1163.42285635 eV
  Timings for VdW correction (Tkatchenko-Scheffler 2009 or later):
  | CPU time:       38.887 s, Wall clock time:       38.891 s.

  Energy and forces in a compact form:
  | Total energy uncorrected      :         -0.390910079735147E+06 eV
  | Total energy corrected        :         -0.390910079735147E+06 eV  <-- do not rely on this value for anything but (periodic) metals
  | Electronic free energy        :         -0.390910079735147E+06 eV

  ------------------------------------ 
  Start decomposition of the XC Energy 
  ------------------------------------ 
  X and C from original XC functional choice 
  Hartree-Fock Energy :          0.000000000 Ha              0.000000000 eV
  X Energy            :      -1705.738909759 Ha         -46415.517330053 eV
  C Energy            :        -63.236390944 Ha          -1720.749748358 eV
  Total XC Energy     :      -1768.975300702 Ha         -48136.267078411 eV
  ------------------------------------ 
  LDA X and C from self-consistent density 
  X Energy LDA        :      -1551.701413850 Ha         -42223.943801457 eV
  C Energy LDA        :       -123.737691806 Ha          -3367.073908864 eV
  ------------------------------------ 
  End decomposition of the XC Energy 
  ------------------------------------ 

------------------------------------------------------------

------------------------------------------------------------------------------
  Final output of selected total energy values:

  The following output summarizes some interesting total energy values
  at the end of a run (AFTER all relaxation, molecular dynamics, etc.).

  | Total energy of the DFT / Hartree-Fock s.c.f. calculation      :        -390910.079735147 eV
  | Final zero-broadening corrected energy (caution - metals only) :        -390910.079735147 eV
  | For reference only, the value of 1 Hartree used in FHI-aims is :             27.211384500 eV

  Before relying on these values, please be sure to understand exactly which
  total energy value is referred to by a given number. Different objects may
  all carry the same name 'total energy'. Definitions:

  Total energy of the DFT / Hartree-Fock s.c.f. calculation:
  | Note that this energy does not include ANY quantities calculated after the
  | s.c.f. cycle, in particular not ANY RPA, MP2, etc. many-body perturbation terms.

  Final zero-broadening corrected energy:
  | For metallic systems only, a broadening of the occupation numbers at the Fermi
  | level can be extrapolated back to zero broadening by an electron-gas inspired
  | formula. For all systems that are not real metals, this value can be
  | meaningless and should be avoided.

------------------------------------------------------------------------------
  Methods described in the following list of references were used in this FHI-aims run.
  If you publish the results, please make sure to cite these reference if they apply.
  FHI-aims is an academic code, and for our developers (often, Ph.D. students
  and postdocs), scientific credit in the community is essential.
  Thank you for helping us!

  For any use of FHI-aims, please cite:

    Volker Blum, Ralf Gehrke, Felix Hanke, Paula Havu, Ville Havu,
    Xinguo Ren, Karsten Reuter, and Matthias Scheffler
    'Ab initio molecular simulations with numeric atom-centered orbitals'
    Computer Physics Communications 180, 2175-2196 (2009)
    http://dx.doi.org/10.1016/j.cpc.2009.06.022


  The scalable eigensolver library ELPA was used in your run.
  ELPA is essential especially for large systems on hundreds or thousands of CPUs.
  For ELPA, please cite:

    Andreas Marek, Volker Blum, Rainer Johanni, Ville Havu, Bruno Lang,
    Thomas Auckenthaler, Alexander Heinecke, Hans-Joachim Bungartz, and Hermann Lederer,
    'The ELPA Library - Scalable Parallel Eigenvalue Solutions
    for Electronic Structure Theory and Computational Science'
    The Journal of Physics: Condensed Matter 26, 213201 (2014).
    http://dx.doi.org/10.1088/0953-8984/26/21/213201


  The ELSI infrastructure was used in your run to solve the Kohn-Sham electronic structure.
  Please check out http://elsi-interchange.org to learn more.
  If scalability is important for your project, please acknowledge ELSI by citing:

    V. W-z. Yu, F. Corsetti, A. Garcia, W. P. Huhn, M. Jacquelin, W. Jia,
    B. Lange, L. Lin, J. Lu, W. Mi, A. Seifitokaldani, A. Vazquez-Mayagoitia,
    C. Yang, H. Yang, and V. Blum
    'ELSI: A unified software interface for Kohn-Sham electronic structure solvers'
    Computer Physics Communications 222, 267-285 (2018).
    http://dx.doi.org/10.1016/j.cpc.2017.09.007


  For the real-space grid partitioning and parallelization used in this calculation, please cite:

    Ville Havu, Volker Blum, Paula Havu, and Matthias Scheffler,
    'Efficient O(N) integration for all-electron electronic structure calculation'
    'using numerically tabulated basis functions'
    Journal of Computational Physics 228, 8367-8379 (2009).
    http://dx.doi.org/10.1016/j.jcp.2009.08.008

  Of course, there are many other important community references, e.g., those cited in the
  above references. Our list is limited to references that describe implementations in the
  FHI-aims code. The reason is purely practical (length of this list) - please credit others as well.

------------------------------------------------------------
          Leaving FHI-aims.
          Date     :  20200213, Time     :  231052.810

          Computational steps:
          | Number of self-consistency cycles          :           27
          | Number of SCF (re)initializations          :            1

          Detailed time accounting                     :  max(cpu_time)    wall_clock(cpu1)
          | Total time                                 :     2268.286 s        2268.760 s
          | Preparation time                           :        0.268 s           0.257 s
          | Boundary condition initalization           :       13.466 s          13.467 s
          | Grid partitioning                          :        4.499 s           4.496 s
          | Preloading free-atom quantities on grid    :        0.008 s           0.010 s
          | Free-atom superposition energy             :        2.182 s           2.182 s
          | Total time for integrations                :      155.050 s         155.058 s
          | Total time for solution of K.-S. equations :      761.851 s         761.892 s
          | Total time for density update              :      243.423 s         243.412 s
          | Total time for mixing & preconditioning    :      590.700 s         590.740 s
          | Total time for Hartree multipole update    :        0.621 s           0.628 s
          | Total time for Hartree multipole sum       :      447.652 s         447.696 s
          | Total time for total energy evaluation     :        0.042 s           0.060 s
          | Total time for scaled ZORA corrections     :        0.000 s           0.000 s
          | Total time for vdW correction              :       38.887 s          38.891 s

          Partial memory accounting:
          | Residual value for overall tracked memory usage across tasks :       16932.018 MB (should be 0.000 MB)
          |
          | Largest tracked array allocation (+KS_eigenvector_complex):
          |   Minimum:      117.965 MB (on task  1)
          |   Maximum:      117.965 MB (on task  1)
          |   Average:      117.965 MB
          |
          | Because the residual tracked memory usage was not zero, the peak value for overall
          | tracked memory usage was not output, as it is probably incorrect.  This is likely due
          | to a missing aims_deallocate statement in the source code, which should be otherwise
          | harmless.
          |
          Note:  These values currently only include a subset of arrays which are explicitly tracked.
          The "true" memory usage will be greater.

          Have a nice day.
------------------------------------------------------------
