  MPI-parallelism will be employed.
------------------------------------------------------------
          Invoking FHI-aims ...
          Version 180424
          Compiled on 2018/04/28 at 19:12:01 on host coe.psc.edu.

          When using FHI-aims, please cite the following reference:

          Volker Blum, Ralf Gehrke, Felix Hanke, Paula Havu,
          Ville Havu, Xinguo Ren, Karsten Reuter, and Matthias Scheffler,
          'Ab Initio Molecular Simulations with Numeric Atom-Centered Orbitals',
          Computer Physics Communications 180, 2175-2196 (2009)

          For any questions about FHI-aims, please visit the aimsclub website
          with its forums and wiki. Contributions to both the forums and the
          wiki are warmly encouraged - they are for you, and everyone is welcome there.

------------------------------------------------------------



  Date     :  20200214, Time     :  125745.367
  Time zero on CPU 1             :   0.480710000000000E-01  s.
  Internal wall clock time zero  :           350917065.367  s.

  FHI-aims created a unique identifier for this run for later identification
  aims_uuid : BECCB260-169E-4937-A639-7FFA419E07AC

  Using       56 parallel tasks.
  Task        0 on host d035 reporting.
  Task        1 on host d035 reporting.
  Task        2 on host d035 reporting.
  Task        3 on host d035 reporting.
  Task        4 on host d035 reporting.
  Task        5 on host d035 reporting.
  Task        6 on host d035 reporting.
  Task        7 on host d035 reporting.
  Task        8 on host d035 reporting.
  Task        9 on host d035 reporting.
  Task       10 on host d035 reporting.
  Task       11 on host d035 reporting.
  Task       12 on host d035 reporting.
  Task       13 on host d035 reporting.
  Task       14 on host d035 reporting.
  Task       15 on host d035 reporting.
  Task       16 on host d035 reporting.
  Task       17 on host d035 reporting.
  Task       18 on host d035 reporting.
  Task       19 on host d035 reporting.
  Task       20 on host d035 reporting.
  Task       21 on host d035 reporting.
  Task       22 on host d035 reporting.
  Task       23 on host d035 reporting.
  Task       24 on host d035 reporting.
  Task       25 on host d035 reporting.
  Task       26 on host d035 reporting.
  Task       27 on host d035 reporting.
  Task       28 on host d035 reporting.
  Task       29 on host d035 reporting.
  Task       30 on host d035 reporting.
  Task       31 on host d035 reporting.
  Task       32 on host d035 reporting.
  Task       33 on host d035 reporting.
  Task       34 on host d035 reporting.
  Task       35 on host d035 reporting.
  Task       36 on host d035 reporting.
  Task       37 on host d035 reporting.
  Task       38 on host d035 reporting.
  Task       39 on host d035 reporting.
  Task       40 on host d035 reporting.
  Task       41 on host d035 reporting.
  Task       42 on host d035 reporting.
  Task       43 on host d035 reporting.
  Task       44 on host d035 reporting.
  Task       45 on host d035 reporting.
  Task       46 on host d035 reporting.
  Task       47 on host d035 reporting.
  Task       48 on host d035 reporting.
  Task       49 on host d035 reporting.
  Task       50 on host d035 reporting.
  Task       51 on host d035 reporting.
  Task       52 on host d035 reporting.
  Task       53 on host d035 reporting.
  Task       54 on host d035 reporting.
  Task       55 on host d035 reporting.

  Performing system and environment tests:
  *** Environment variable OMP_NUM_THREADS is not set
  *** For performance reasons you might want to set it to 1
  | Stacksize not measured: no C compiler
  | Checking for scalapack...
  | Testing pdtran()...
  | All pdtran() tests passed.

  Obtaining array dimensions for all initial allocations:
  
  -----------------------------------------------------------------------
  Parsing control.in (first pass over file, find array dimensions only).
  The contents of control.in will be repeated verbatim below
  unless switched off by setting 'verbatim_writeout .false.' .
  in the first line of control.in .
  -----------------------------------------------------------------------
  
  #===============================================================================
  # FHI-aims file: ./control.in
  # Created using the Atomic Simulation Environment (ASE)
  # Tue Feb 11 11:37:57 2020
  #===============================================================================
  xc                                 pbe
  spin                               none
  relativistic                       atomic_zora scalar
  charge                             0
  occupation_type                    gaussian 0.01
  mixer                              pulay
  n_max_pulay                        8
  charge_mix_param                   0.02
  sc_accuracy_rho                    0.0001
  sc_accuracy_eev                    0.01
  sc_accuracy_etot                   1e-06
  sc_iter_limit                      10000
  KS_method                          parallel
  empty_states                       6
  basis_threshold                    1e-05
  k_grid                             4 4 1
  vdw_correction_hirshfeld
  use_dipole_correction              .true.
  #===============================================================================
  
  ################################################################################
  #
  #  FHI-aims code project
  #  VB, Fritz-Haber Institut, 2009
  #
  #  Suggested "light" defaults for H atom (to be pasted into control.in file)
  #  Be sure to double-check any results obtained with these settings for post-processing,
  #  e.g., with the "tight" defaults and larger basis sets.
  #
  ################################################################################
    species        H
  #     global species definitions
      nucleus             1
      mass                1.00794
  #
      l_hartree           4
  #
      cut_pot             3.5  1.5  1.0
      basis_dep_cutoff    1e-4
  #
      radial_base         24 5.0
      radial_multiplier   1
      angular_grids       specified
        division   0.2421   50
        division   0.3822  110
        division   0.4799  194
        division   0.5341  302
  #      division   0.5626  434
  #      division   0.5922  590
  #      division   0.6542  770
  #      division   0.6868 1202
  #      outer_grid  770
        outer_grid  302
  ################################################################################
  #
  #  Definition of "minimal" basis
  #
  ################################################################################
  #     valence basis states
      valence      1  s   1.
  #     ion occupancy
      ion_occ      1  s   0.5
  ################################################################################
  #
  #  Suggested additional basis functions. For production calculations,
  #  uncomment them one after another (the most important basis functions are
  #  listed first).
  #
  #  Basis constructed for dimers: 0.5 A, 0.7 A, 1.0 A, 1.5 A, 2.5 A
  #
  ################################################################################
  #  "First tier" - improvements: -1014.90 meV to -62.69 meV
       hydro 2 s 2.1
       hydro 2 p 3.5
  #  "Second tier" - improvements: -12.89 meV to -1.83 meV
  #     hydro 1 s 0.85
  #     hydro 2 p 3.7
  #     hydro 2 s 1.2
  #     hydro 3 d 7
  #  "Third tier" - improvements: -0.25 meV to -0.12 meV
  #     hydro 4 f 11.2
  #     hydro 3 p 4.8
  #     hydro 4 d 9
  #     hydro 3 s 3.2
  ################################################################################
  #
  #  FHI-aims code project
  #  VB, Fritz-Haber Institut, 2009
  #
  #  Suggested "light" defaults for C atom (to be pasted into control.in file)
  #  Be sure to double-check any results obtained with these settings for post-processing,
  #  e.g., with the "tight" defaults and larger basis sets.
  #
  ################################################################################
    species        C
  #     global species definitions
      nucleus             6
      mass                12.0107
  #
      l_hartree           4
  #
      cut_pot             3.5  1.5  1.0
      basis_dep_cutoff    1e-4
  #
      radial_base         34 5.0
      radial_multiplier   1
      angular_grids specified
        division   0.3326   50
        division   0.5710  110
        division   0.7727  194
        division   0.8772  302
  #      division   0.9334  434
  #      division   0.9625  590
  #      division   0.9924  770
  #      division   1.0230  974
  #      division   1.4589 1202
  #     outer_grid  974
       outer_grid 302
  ################################################################################
  #
  #  Definition of "minimal" basis
  #
  ################################################################################
  #     valence basis states
      valence      2  s   2.
      valence      2  p   2.
  #     ion occupancy
      ion_occ      2  s   1.
      ion_occ      2  p   1.
  ################################################################################
  #
  #  Suggested additional basis functions. For production calculations,
  #  uncomment them one after another (the most important basis functions are
  #  listed first).
  #
  #  Constructed for dimers: 1.0 A, 1.25 A, 1.5 A, 2.0 A, 3.0 A
  #
  ################################################################################
  #  "First tier" - improvements: -1214.57 meV to -155.61 meV
       hydro 2 p 1.7
       hydro 3 d 6
       hydro 2 s 4.9
  #  "Second tier" - improvements: -67.75 meV to -5.23 meV
  #     hydro 4 f 9.8
  #     hydro 3 p 5.2
  #     hydro 3 s 4.3
  #     hydro 5 g 14.4
  #     hydro 3 d 6.2
  #  "Third tier" - improvements: -2.43 meV to -0.60 meV
  #     hydro 2 p 5.6
  #     hydro 2 s 1.4
  #     hydro 3 d 4.9
  #     hydro 4 f 11.2
  #  "Fourth tier" - improvements: -0.39 meV to -0.18 meV
  #     hydro 2 p 2.1
  #     hydro 5 g 16.4
  #     hydro 4 d 13.2
  #     hydro 3 s 13.6
  #     hydro 4 f 17.6
  #  Further basis functions - improvements: -0.08 meV and below
  #     hydro 3 s 2
  #     hydro 3 p 6
  #     hydro 4 d 20
  ################################################################################
  #
  #  FHI-aims code project
  #  VB, Fritz-Haber Institut, 2009
  #
  #  Suggested "light" defaults for N atom (to be pasted into control.in file)
  #  Be sure to double-check any results obtained with these settings for post-processing,
  #  e.g., with the "tight" defaults and larger basis sets.
  #
  ################################################################################
    species        N
  #     global species definitions
      nucleus             7
      mass                14.0067
  #
      l_hartree           4
  #
      cut_pot             3.5  1.5  1.0
      basis_dep_cutoff    1e-4
  #
      radial_base         35 5.0
      radial_multiplier   1
      angular_grids       specified
        division   0.2599   50
        division   0.4601  110
        division   0.5885  194
        division   0.6503  302
  #      division   0.6939  434
  #      division   0.7396  590
  #      division   0.7632  770
  #      division   0.8122  974
  #      division   1.1604 1202
  #      outer_grid  974
        outer_grid  302
  ################################################################################
  #
  #  Definition of "minimal" basis
  #
  ################################################################################
  #     valence basis states
      valence      2  s   2.
      valence      2  p   3.
  #     ion occupancy
      ion_occ      2  s   1.
      ion_occ      2  p   2.
  ################################################################################
  #
  #  Suggested additional basis functions. For production calculations,
  #  uncomment them one after another (the most important basis functions are
  #  listed first).
  #
  #  Constructed for dimers: 1.0 A, 1.1 A, 1.5 A, 2.0 A, 3.0 A
  #
  ################################################################################
  #  "First tier" - improvements: -1193.42 meV to -220.60 meV
       hydro 2 p 1.8
       hydro 3 d 6.8
       hydro 3 s 5.8
  #  "Second tier" - improvements: -80.21 meV to -6.86 meV
  #     hydro 4 f 10.8
  #     hydro 3 p 5.8
  #     hydro 1 s 0.8
  #     hydro 5 g 16
  #     hydro 3 d 4.9
  #  "Third tier" - improvements: -4.29 meV to -0.53 meV
  #     hydro 3 s 16
  #     ionic 2 p auto
  #     hydro 3 d 6.6
  #     hydro 4 f 11.6
  #  "Fourth tier" - improvements: -0.75 meV to -0.25 meV
  #     hydro 2 p 4.5
  #     hydro 2 s 2.4
  #     hydro 5 g 14.4
  #     hydro 4 d 14.4
  #     hydro 4 f 16.8
  # Further basis functions - -0.21 meV and below
  #     hydro 3 p 14.8
  #     hydro 3 s 4.4
  #     hydro 3 d 19.6
  #     hydro 5 g 12.8
  ################################################################################
  #
  #  FHI-aims code project
  #  VB, Fritz-Haber Institut, 2009
  #
  #  Suggested "light" defaults for O atom (to be pasted into control.in file)
  #  Be sure to double-check any results obtained with these settings for post-processing,
  #  e.g., with the "tight" defaults and larger basis sets.
  #
  ################################################################################
    species        O
  #     global species definitions
      nucleus             8
      mass                15.9994
  #
      l_hartree           4
  #
      cut_pot             3.5  1.5  1.0
      basis_dep_cutoff    1e-4
  #
      radial_base         36 5.0
      radial_multiplier   1
       angular_grids specified
        division   0.2659   50
        division   0.4451  110
        division   0.6052  194
        division   0.7543  302
  #      division   0.8014  434
  #      division   0.8507  590
  #      division   0.8762  770
  #      division   0.9023  974
  #      division   1.2339 1202
  #      outer_grid 974
        outer_grid 302
  ################################################################################
  #
  #  Definition of "minimal" basis
  #
  ################################################################################
  #     valence basis states
      valence      2  s   2.
      valence      2  p   4.
  #     ion occupancy
      ion_occ      2  s   1.
      ion_occ      2  p   3.
  ################################################################################
  #
  #  Suggested additional basis functions. For production calculations,
  #  uncomment them one after another (the most important basis functions are
  #  listed first).
  #
  #  Constructed for dimers: 1.0 A, 1.208 A, 1.5 A, 2.0 A, 3.0 A
  #
  ################################################################################
  #  "First tier" - improvements: -699.05 meV to -159.38 meV
       hydro 2 p 1.8
       hydro 3 d 7.6
       hydro 3 s 6.4
  #  "Second tier" - improvements: -49.91 meV to -5.39 meV
  #     hydro 4 f 11.6
  #     hydro 3 p 6.2
  #     hydro 3 d 5.6
  #     hydro 5 g 17.6
  #     hydro 1 s 0.75
  #  "Third tier" - improvements: -2.83 meV to -0.50 meV
  #     ionic 2 p auto
  #     hydro 4 f 10.8
  #     hydro 4 d 4.7
  #     hydro 2 s 6.8
  #  "Fourth tier" - improvements: -0.40 meV to -0.12 meV
  #     hydro 3 p 5
  #     hydro 3 s 3.3
  #     hydro 5 g 15.6
  #     hydro 4 f 17.6
  #     hydro 4 d 14
  # Further basis functions - -0.08 meV and below
  #     hydro 3 s 2.1
  #     hydro 4 d 11.6
  #     hydro 3 p 16
  #     hydro 2 s 17.2
  
  -----------------------------------------------------------------------
  Completed first pass over input file control.in .
  -----------------------------------------------------------------------
  
  
  -----------------------------------------------------------------------
  Parsing geometry.in (first pass over file, find array dimensions only).
  The contents of geometry.in will be repeated verbatim below
  unless switched off by setting 'verbatim_writeout .false.' .
  in the first line of geometry.in .
  -----------------------------------------------------------------------
  
  #=======================================================
  # FHI-aims file: ./geometry.in
  # Created using the Atomic Simulation Environment (ASE)
  # Tue Feb 11 11:37:57 2020
  #=======================================================
  lattice_vector 6.5957600000000003 0.0000000000000000 0.0000000000000000
  lattice_vector -1.5450440000000001 7.2328489999999999 0.0000000000000000
  lattice_vector 0.0000000000000000 0.0000000000000000 101.9838120000000004
  atom_frac 0.7022389999999999 0.7714430000000000 0.4162560000000000 H
  atom_frac 0.8527860000000000 0.7481320000000000 0.4704220000000000 H
  atom_frac 0.3500430000000000 0.2473650000000000 0.4215800000000000 H
  atom_frac 0.7536680000000000 0.3937020000000000 0.3975830000000000 H
  atom_frac 0.7996330000000000 0.1252500000000000 0.4517100000000000 H
  atom_frac 0.2988840000000000 0.6252560000000000 0.4402530000000000 H
  atom_frac 0.5320430000000000 0.8299350000000000 0.4042080000000000 H
  atom_frac 0.0220780000000000 0.6893629999999999 0.4583350000000000 H
  atom_frac 0.5204460000000000 0.1889920000000000 0.4335880000000000 H
  atom_frac 0.8566390000000000 0.5554530000000000 0.4102020000000000 H
  atom_frac 0.6981000000000001 0.9643940000000000 0.4644280000000000 H
  atom_frac 0.1956740000000000 0.4633950000000000 0.4276530000000000 H
  atom_frac 0.2063670000000000 0.2733600000000000 0.4755290000000000 H
  atom_frac 0.2593690000000000 0.8961910000000000 0.4942230000000000 H
  atom_frac 0.0370650000000000 0.3321490000000000 0.4876170000000000 H
  atom_frac 0.3610330000000000 0.0570980000000000 0.4815240000000000 H
  atom_frac 0.7090190000000000 0.7739360000000000 0.5243520000000000 H
  atom_frac 0.8595670000000000 0.7506260000000000 0.5785190000000000 H
  atom_frac 0.3568230000000001 0.2498590000000000 0.5296760000000000 H
  atom_frac 0.7604480000000000 0.3961950000000000 0.5056790000000000 H
  atom_frac 0.8064130000000000 0.1277440000000000 0.5598060000000000 H
  atom_frac 0.3056640000000000 0.6277500000000000 0.5483500000000000 H
  atom_frac 0.5388230000000001 0.8324279999999999 0.5123040000000000 H
  atom_frac 0.0288580000000000 0.6918570000000001 0.5664310000000000 H
  atom_frac 0.5272260000000000 0.1914860000000000 0.5416850000000000 H
  atom_frac 0.8634190000000002 0.5579470000000000 0.5182990000000000 H
  atom_frac 0.7048810000000000 0.9668869999999999 0.5725240000000000 H
  atom_frac 0.2024540000000000 0.4658890000000000 0.5357490000000000 H
  atom_frac 0.2131470000000000 0.2758540000000000 0.5836260000000000 H
  atom_frac 0.2661490000000000 0.8986850000000000 0.6023190000000000 H
  atom_frac 0.0438450000000000 0.3346419999999999 0.5957130000000000 H
  atom_frac 0.3678130000000000 0.0595920000000000 0.5896200000000000 H
  atom_frac 0.5509510000000000 0.7262130000000000 0.4115040000000000 C
  atom_frac 0.0037260000000000 0.7933220000000000 0.4656310000000000 C
  atom_frac 0.5014080000000000 0.2926240000000000 0.4262930000000000 C
  atom_frac 0.7207060000000000 0.4534080000000000 0.4069680000000000 C
  atom_frac 0.8337010000000000 0.0661570000000000 0.4610960000000000 C
  atom_frac 0.3316750000000001 0.5654600000000000 0.4308670000000000 C
  atom_frac 0.0554070000000000 0.2281800000000000 0.4803210000000000 C
  atom_frac 0.2253910000000000 0.9553350000000000 0.4848370000000000 C
  atom_frac 0.5577309999999999 0.7287069999999999 0.5196000000000000 C
  atom_frac 0.0105060000000000 0.7958150000000001 0.5737270000000000 C
  atom_frac 0.5081890000000000 0.2951180000000000 0.5343890000000000 C
  atom_frac 0.7274870000000000 0.4559020000000000 0.5150650000000000 C
  atom_frac 0.8404820000000000 0.0686510000000000 0.5691920000000000 C
  atom_frac 0.3384560000000000 0.5679530000000000 0.5389640000000000 C
  atom_frac 0.0621870000000000 0.2306740000000000 0.5884170000000000 C
  atom_frac 0.2321710000000000 0.9578280000000000 0.5929330000000000 C
  atom_frac 0.5517919999999999 0.5474640000000000 0.4054700000000000 N
  atom_frac 0.0022650000000000 0.9717810000000000 0.4595580000000000 N
  atom_frac 0.5006380000000000 0.4714240000000000 0.4323460000000000 N
  atom_frac 0.3843390000000000 0.7166630000000000 0.4210470000000000 N
  atom_frac 0.6679210000000000 0.3021040000000000 0.4167690000000000 N
  atom_frac 0.8879120000000000 0.2181420000000000 0.4708360000000000 N
  atom_frac 0.3940510000000000 0.4732210000000000 0.3966750000000000 N
  atom_frac 0.1594910000000000 0.0459580000000000 0.4507240000000000 N
  atom_frac 0.6583700000000000 0.5456370000000000 0.4411410000000000 N
  atom_frac 0.2267700000000000 0.8074270000000000 0.4181880000000000 N
  atom_frac 0.3281990000000000 0.7120240000000000 0.4722170000000000 N
  atom_frac 0.8255100000000000 0.2113600000000000 0.4196280000000000 N
  atom_frac 0.0568280000000000 0.0497110000000000 0.4863940000000000 N
  atom_frac 0.1712500000000000 0.8034000000000000 0.4750960000000000 N
  atom_frac 0.8995710000000000 0.9755239999999999 0.4952080000000000 N
  atom_frac 0.7309430000000000 0.3095080000000000 0.4737150000000000 N
  atom_frac 0.5585730000000000 0.5499570000000000 0.5135660000000000 N
  atom_frac 0.0090450000000000 0.9742749999999999 0.5676540000000000 N
  atom_frac 0.5074180000000000 0.4739170000000000 0.5404420000000000 N
  atom_frac 0.3911200000000000 0.7191570000000000 0.5291439999999999 N
  atom_frac 0.6747010000000000 0.3045980000000000 0.5248650000000000 N
  atom_frac 0.8946930000000000 0.2206350000000000 0.5789330000000000 N
  atom_frac 0.4008310000000000 0.4757150000000000 0.5047720000000000 N
  atom_frac 0.1662710000000000 0.0484510000000000 0.5588200000000000 N
  atom_frac 0.6651500000000000 0.5481300000000000 0.5492370000000000 N
  atom_frac 0.2335500000000000 0.8099210000000000 0.5262850000000000 N
  atom_frac 0.3349790000000000 0.7145170000000000 0.5803130000000000 N
  atom_frac 0.8322909999999999 0.2138540000000000 0.5277240000000000 N
  atom_frac 0.0636080000000000 0.0522040000000000 0.5944910000000000 N
  atom_frac 0.1780300000000000 0.8058940000000000 0.5831920000000000 N
  atom_frac 0.9063510000000000 0.9780180000000001 0.6033050000000000 N
  atom_frac 0.7377230000000000 0.3120020000000000 0.5818120000000000 N
  atom_frac 0.2624250000000000 0.5663610000000000 0.3945060000000000 O
  atom_frac 0.2913050000000000 0.9530080000000000 0.4485550000000000 O
  atom_frac 0.7899850000000000 0.4524860000000000 0.4432900000000000 O
  atom_frac 0.3972810000000001 0.3194280000000000 0.3922190000000000 O
  atom_frac 0.1556400000000000 0.1995140000000000 0.4462480000000000 O
  atom_frac 0.6551709999999999 0.6994300000000000 0.4456169999999999 O
  atom_frac 0.2624230000000000 0.9362940000000000 0.4102610000000000 O
  atom_frac 0.2914860000000000 0.5826020000000000 0.4643490000000001 O
  atom_frac 0.7898060000000000 0.0824430000000000 0.4275350000000000 O
  atom_frac 0.0621050000000000 0.7541490000000000 0.4243210000000000 O
  atom_frac 0.9902069999999999 0.2646690000000000 0.4135150000000000 O
  atom_frac 0.5656930000000000 0.2561780000000000 0.4676620000000000 O
  atom_frac 0.7677570000000000 0.0684840000000000 0.4973770000000000 O
  atom_frac 0.9033620000000000 0.8219470000000000 0.4996850000000000 O
  atom_frac 0.7676780000000000 0.4389400000000000 0.4816030000000000 O
  atom_frac 0.4934390000000000 0.7653329999999999 0.4782700000000000 O
  atom_frac 0.2692050000000000 0.5688540000000000 0.5026030000000000 O
  atom_frac 0.2980850000000000 0.9555010000000000 0.5566510000000000 O
  atom_frac 0.7967649999999999 0.4549800000000000 0.5513860000000000 O
  atom_frac 0.4040610000000000 0.3219220000000000 0.5003150000000000 O
  atom_frac 0.1624200000000000 0.2020080000000000 0.5543439999999999 O
  atom_frac 0.6619510000000000 0.7019240000000000 0.5537130000000000 O
  atom_frac 0.2692030000000000 0.9387880000000000 0.5183580000000000 O
  atom_frac 0.2982660000000000 0.5850959999999999 0.5724450000000000 O
  atom_frac 0.7965869999999999 0.0849360000000000 0.5356310000000000 O
  atom_frac 0.0688850000000000 0.7566420000000000 0.5324170000000000 O
  atom_frac 0.9969870000000001 0.2671630000000000 0.5216110000000000 O
  atom_frac 0.5724730000000000 0.2586720000000000 0.5757580000000000 O
  atom_frac 0.7745370000000000 0.0709780000000000 0.6054740000000000 O
  atom_frac 0.9101420000000001 0.8244410000000000 0.6077810000000000 O
  atom_frac 0.7744579999999999 0.4414340000000000 0.5896990000000000 O
  atom_frac 0.5002190000000000 0.7678270000000001 0.5863670000000000 O
  
  -----------------------------------------------------------------------
  Completed first pass over input file geometry.in .
  -----------------------------------------------------------------------
  

  Basic array size parameters:
  | Number of species                 :        4
  | Number of atoms                   :      112
  | Number of lattice vectors         :        3
  | Max. basis fn. angular momentum   :        2
  | Max. atomic/ionic basis occupied n:        2
  | Max. number of basis fn. types    :        2
  | Max. radial fns per species/type  :        3
  | Max. logarithmic grid size        :     1301
  | Max. radial integration grid size :       36
  | Max. angular integration grid size:      302
  | Max. angular grid division number :        8
  | Radial grid for Hartree potential :     1301
  | Number of spin channels           :        1

------------------------------------------------------------
          Reading file control.in.
------------------------------------------------------------
  XC: Using PBE gradient-corrected functionals.
  Spin treatment: No spin polarisation.
  Scalar relativistic treatment of kinetic energy: on-site free-atom approximation to ZORA.
  Charge =   0.000000E+00: Neutral system requested explicitly.
  Occupation type: Gaussian broadening, width =   0.100000E-01 eV.
  Using pulay charge density mixing.
  Pulay mixing - number of memorized iterations:    8
  Charge density mixing - mixing parameter:     0.0200
  Convergence accuracy of self-consistent charge density:  0.1000E-03
  Convergence accuracy of sum of eigenvalues:  0.1000E-01
  Convergence accuracy of total energy:  0.1000E-05
  Maximum number of s.-c. iterations  : 10000
  Kohn-Sham electronic structure solved by the ELSI library.
  Number of empty states per atom:        6
  Threshold for basis singularities:  0.1000E-04
  Found k-point grid:         4         4         1
  Using dipole correction.
 
  Reading configuration options for species H                   .
  | Found nuclear charge :   1.0000
  | Found atomic mass :    1.00794000000000      amu
  | Found l_max for Hartree potential  :   4
  | Found cutoff potl. onset [A], width [A], scale factor :    3.50000    1.50000    1.00000
  | Threshold for basis-dependent cutoff potential is   0.100000E-03
  | Found data for basic radial integration grid :    24 points, outermost radius =    5.000 A
  | Found multiplier for basic radial grid :   1
  | Found angular grid specification: user-specified.
  | Specified grid contains     5 separate shells.
  | Check grid settings after all constraints further below.
  | Found free-atom valence shell :  1 s   1.000
  | No ionic wave fns used. Skipping ion_occ.
  | Found hydrogenic basis function :  2 s   2.100
  | Found hydrogenic basis function :  2 p   3.500
  Species H                   : Missing cutoff potential type.
  Defaulting to exp(1/x)/(1-x)^2 type cutoff potential.
  Species H : No 'logarithmic' tag. Using default grid for free atom:
  | Default logarithmic grid data [bohr] : 0.1000E-03 0.1000E+03 0.1012E+01
  Species H : On-site basis accuracy parameter (for Gram-Schmidt orthonormalisation) not specified.
  Using default value basis_acc =  0.1000000E-03.
  Species H                   : Using default innermost maximum threshold i_radial=  2 for radial functions.
  Species H                   : Default cutoff onset for free atom density etc. : 0.35000000E+01 AA.
  Species H                   : Basic radial grid will be enhanced according to radial_multiplier =   1, to contain    24 grid points.
 
  Reading configuration options for species C                   .
  | Found nuclear charge :   6.0000
  | Found atomic mass :    12.0107000000000      amu
  | Found l_max for Hartree potential  :   4
  | Found cutoff potl. onset [A], width [A], scale factor :    3.50000    1.50000    1.00000
  | Threshold for basis-dependent cutoff potential is   0.100000E-03
  | Found data for basic radial integration grid :    34 points, outermost radius =    5.000 A
  | Found multiplier for basic radial grid :   1
  | Found angular grid specification: user-specified.
  | Specified grid contains     5 separate shells.
  | Check grid settings after all constraints further below.
  | Found free-atom valence shell :  2 s   2.000
  | Found free-atom valence shell :  2 p   2.000
  | No ionic wave fns used. Skipping ion_occ.
  | No ionic wave fns used. Skipping ion_occ.
  | Found hydrogenic basis function :  2 p   1.700
  | Found hydrogenic basis function :  3 d   6.000
  | Found hydrogenic basis function :  2 s   4.900
  Species C                   : Missing cutoff potential type.
  Defaulting to exp(1/x)/(1-x)^2 type cutoff potential.
  Species C : No 'logarithmic' tag. Using default grid for free atom:
  | Default logarithmic grid data [bohr] : 0.1000E-03 0.1000E+03 0.1012E+01
  Species C : On-site basis accuracy parameter (for Gram-Schmidt orthonormalisation) not specified.
  Using default value basis_acc =  0.1000000E-03.
  Species C                   : Using default innermost maximum threshold i_radial=  2 for radial functions.
  Species C                   : Default cutoff onset for free atom density etc. : 0.35000000E+01 AA.
  Species C                   : Basic radial grid will be enhanced according to radial_multiplier =   1, to contain    34 grid points.
 
  Reading configuration options for species N                   .
  | Found nuclear charge :   7.0000
  | Found atomic mass :    14.0067000000000      amu
  | Found l_max for Hartree potential  :   4
  | Found cutoff potl. onset [A], width [A], scale factor :    3.50000    1.50000    1.00000
  | Threshold for basis-dependent cutoff potential is   0.100000E-03
  | Found data for basic radial integration grid :    35 points, outermost radius =    5.000 A
  | Found multiplier for basic radial grid :   1
  | Found angular grid specification: user-specified.
  | Specified grid contains     5 separate shells.
  | Check grid settings after all constraints further below.
  | Found free-atom valence shell :  2 s   2.000
  | Found free-atom valence shell :  2 p   3.000
  | No ionic wave fns used. Skipping ion_occ.
  | No ionic wave fns used. Skipping ion_occ.
  | Found hydrogenic basis function :  2 p   1.800
  | Found hydrogenic basis function :  3 d   6.800
  | Found hydrogenic basis function :  3 s   5.800
  Species N                   : Missing cutoff potential type.
  Defaulting to exp(1/x)/(1-x)^2 type cutoff potential.
  Species N : No 'logarithmic' tag. Using default grid for free atom:
  | Default logarithmic grid data [bohr] : 0.1000E-03 0.1000E+03 0.1012E+01
  Species N : On-site basis accuracy parameter (for Gram-Schmidt orthonormalisation) not specified.
  Using default value basis_acc =  0.1000000E-03.
  Species N                   : Using default innermost maximum threshold i_radial=  2 for radial functions.
  Species N                   : Default cutoff onset for free atom density etc. : 0.35000000E+01 AA.
  Species N                   : Basic radial grid will be enhanced according to radial_multiplier =   1, to contain    35 grid points.
 
  Reading configuration options for species O                   .
  | Found nuclear charge :   8.0000
  | Found atomic mass :    15.9994000000000      amu
  | Found l_max for Hartree potential  :   4
  | Found cutoff potl. onset [A], width [A], scale factor :    3.50000    1.50000    1.00000
  | Threshold for basis-dependent cutoff potential is   0.100000E-03
  | Found data for basic radial integration grid :    36 points, outermost radius =    5.000 A
  | Found multiplier for basic radial grid :   1
  | Found angular grid specification: user-specified.
  | Specified grid contains     5 separate shells.
  | Check grid settings after all constraints further below.
  | Found free-atom valence shell :  2 s   2.000
  | Found free-atom valence shell :  2 p   4.000
  | No ionic wave fns used. Skipping ion_occ.
  | No ionic wave fns used. Skipping ion_occ.
  | Found hydrogenic basis function :  2 p   1.800
  | Found hydrogenic basis function :  3 d   7.600
  | Found hydrogenic basis function :  3 s   6.400
  Species O                   : Missing cutoff potential type.
  Defaulting to exp(1/x)/(1-x)^2 type cutoff potential.
  Species O : No 'logarithmic' tag. Using default grid for free atom:
  | Default logarithmic grid data [bohr] : 0.1000E-03 0.1000E+03 0.1012E+01
  Species O : On-site basis accuracy parameter (for Gram-Schmidt orthonormalisation) not specified.
  Using default value basis_acc =  0.1000000E-03.
  Species O                   : Using default innermost maximum threshold i_radial=  2 for radial functions.
  Species O                   : Default cutoff onset for free atom density etc. : 0.35000000E+01 AA.
  Species O                   : Basic radial grid will be enhanced according to radial_multiplier =   1, to contain    36 grid points.
 
  Finished reading input file 'control.in'. Consistency checks are next.
 
  MPI_IN_PLACE appears to work with this MPI implementation.
  | Keeping use_mpi_in_place .true. (see manual).
  Target number of points in a grid batch is not set. Defaulting to  100
  Method for grid partitioning is not set. Defaulting to parallel hash+maxmin partitioning.
  Batch size limit is not set. Defaulting to    200
  By default, will store active basis functions for each batch.
  If in need of memory, prune_basis_once .false. can be used to disable this option.
  communication_type for Hartree potential was not specified.
  Defaulting to calc_hartree .
  Pulay mixer: Number of initial linear mixing iterations not set.
  Defaulting to    0 iterations.
  Work space size for distributed Hartree potential not set.
  Defaulting to   0.200000E+03 MB.
  Algorithm-dependent basis array size parameters:
  | n_max_pulay                         :        8
  Presetting      1001 iterations before the initial mixing cycle
  is restarted anyway using the sc_init_iter criterion / keyword.
  Presetting a factor      1.000 between actual scf density residual
  and density convergence criterion sc_accuracy_rho below which sc_init_iter
  takes no effect.
  Calculation of forces was not defined in control.in. No forces will be calculated.
  Geometry relaxation not requested: no relaxation will be performed.
  No accuracy limit for integral partition fn. given. Defaulting to  0.1000E-14.
  No threshold value for u(r) in integrations given. Defaulting to  0.1000E-05.
  No accuracy for occupation numbers given. Defaulting to  0.1000E-12.
  No threshold value for occupation numbers given. Defaulting to  0.0000E+00.
  No accuracy for fermi level given. Defaulting to  0.1000E-19.
  Maximum # of iterations to find E_F not set. Defaulting to  200.
  Maximum number of tasks per SMP nodenot specified.
  Presetting   512 tasks.
  Will not use alltoall communication since running on < 1024 CPUs.
  partition_type (choice of integration weights) for integrals was not specified.
  | Using a version of the partition function of Stratmann and coworkers ('stratmann_smoother').
  | At each grid point, the set of atoms used to build the partition table is smoothly restricted to
  | only those atoms whose free-atom density would be non-zero at that grid point.
  Partitioning for Hartree potential was not defined. Using partition_type for integrals.
  | Adjusted default value of keyword multip_moments_threshold to:       0.10000000E-11
  | This value may affect high angular momentum components of the Hartree potential in periodic systems.
  Angular momentum expansion for Kerker preconditioner not set explicitly.
  | Using default value of   0
  No explicit requirement for turning off preconditioner.
  | By default, it will be turned off when the charge convergence reaches
  | sc_accuracy_rho  =   0.100000E-03
  | sc_accuracy_eev  =   0.100000E-01
  | sc_accuracy_etot =   0.100000E-05
  No special mixing parameter while Kerker preconditioner is on.
  Using default: charge_mix_param =     0.0200.
  No q(lm)/r^(l+1) cutoff set for long-range Hartree potential.
  | Using default value of  0.100000E-09 .
  | Verify using the multipole_threshold keyword.
  Defaulting to new monopole extrapolation.
  Density update method: automatic selection selected.
  Using density matrix based charge density update.
  Using density matrix based charge density update.
  Using packed matrix style: index .
  Defaulting to use time-reversal symmetry for k-point grid.
  Using the following vdw_convergence_threshold for supercell sums
  over the Tkatchenko-Scheffler correction:  0.112000E-05 eV.
------------------------------------------------------------


------------------------------------------------------------
          Reading geometry description geometry.in.
------------------------------------------------------------
  Input structure read successfully.
  The structure contains      112 atoms,  and a total of        608.000 electrons.

  Input geometry:
  | Unit cell:
  |        6.59576000        0.00000000        0.00000000
  |       -1.54504400        7.23284900        0.00000000
  |        0.00000000        0.00000000      101.98381200
  | Atomic structure:
  |       Atom                x [A]            y [A]            z [A]
  |    1: Species H             3.43988653        5.57973073       42.45137365
  |    2: Species H             4.46887493        5.41112579       47.97542881
  |    3: Species H             1.92660981        1.78915369       42.99433546
  |    4: Species H             4.36272633        2.84758712       40.54702993
  |    5: Species H             5.08067060        0.90591434       46.06710772
  |    6: Species H             1.00531910        4.52238223       44.89867918
  |    7: Species H             2.22694185        6.00279453       41.22267268
  |    8: Species H            -0.91947498        4.98605849       46.74275047
  |    9: Species H             3.14073595        1.36695060       44.21895708
  |   10: Species H             4.79198593        4.01750768       41.83396365
  |   11: Species H             3.11446889        6.97531618       47.36413784
  |   12: Species H             0.57465308        3.35166606       43.61368315
  |   13: Species H             0.93879398        1.97717160       48.49626014
  |   14: Species H             0.32608115        6.48201418       50.40274552
  |   15: Species H            -0.26871298        2.40238356       49.72904046
  |   16: Species H             2.29306810        0.41298121       49.10765309
  |   17: Species H             3.48075399        5.59776222       53.47541579
  |   18: Species H             4.50974744        5.42916451       58.99957293
  |   19: Species H             1.96747572        1.80719242       54.01837760
  |   20: Species H             4.40359379        2.86561861       51.57107207
  |   21: Species H             5.12153651        0.92395306       57.09114986
  |   22: Species H             1.04618501        4.54042096       55.92282331
  |   23: Species H             2.26780930        6.02082603       52.24671482
  |   24: Species H            -0.87860906        5.00409721       57.76679261
  |   25: Species H             3.18160187        1.38498932       55.24310120
  |   26: Species H             4.83285184        4.03554640       52.85810778
  |   27: Species H             3.15534295        6.99334767       58.38817998
  |   28: Species H             0.61551899        3.36970479       54.63772530
  |   29: Species H             0.97965989        1.99521033       59.52040426
  |   30: Species H             0.36694706        6.50005290       61.42678766
  |   31: Species H            -0.22784552        2.42041506       60.75308260
  |   32: Species H             2.33393401        0.43101994       60.13169523
  |   33: Species C             2.51190953        5.25258897       41.96674657
  |   34: Species C            -1.20114159        5.73797823       47.48682437
  |   35: Species C             2.85504987        2.11650521       43.47498517
  |   36: Species C             4.05306850        3.27943160       41.50414800
  |   37: Species C             5.39667623        0.47850359       47.02432778
  |   38: Species C             1.31398812        4.08988680       43.94145913
  |   39: Species C             0.01290313        1.65039148       48.98496656
  |   40: Species C             0.01059033        6.90979380       49.44552546
  |   41: Species C             2.55277544        5.27062770       52.99078872
  |   42: Species C            -1.16027414        5.75600973       58.51086651
  |   43: Species C             2.89592238        2.13454393       54.49902731
  |   44: Species C             4.09394101        3.29747032       52.52829213
  |   45: Species C             5.43754874        0.49654232       58.04836992
  |   46: Species C             1.35486217        4.10791829       54.96560325
  |   47: Species C             0.05376905        1.66843021       60.00900871
  |   48: Species C             0.05145779        6.92782529       60.46956760
  |   49: Species N             2.79363163        3.95972444       41.35137625
  |   50: Species N            -1.48650501        7.02874523       46.86747668
  |   51: Species N             2.57371727        3.40973861       44.09229318
  |   52: Species N             1.42773193        5.18351526       42.93997809
  |   53: Species N             3.93868264        2.18507261       42.50369134
  |   54: Species N             5.51941546        1.57778815       48.01765011
  |   55: Species N             1.86791856        3.42273604       40.45442863
  |   56: Species N             0.98095723        0.33240727       45.96655168
  |   57: Species N             3.49941734        3.94651003       44.98924081
  |   58: Species N             0.24821025        5.83999757       42.64840637
  |   59: Species N             1.06461343        5.14996208       48.15848975
  |   60: Species N             5.11830534        1.52873496       42.79526306
  |   61: Species N             0.29801817        0.35955216       49.60431425
  |   62: Species N            -0.11176445        5.81087089       48.45210115
  |   63: Species N             4.42612692        7.05581779       50.50319957
  |   64: Species N             4.34292112        2.23862463       48.31126150
  |   65: Species N             2.83450569        3.97775594       52.37541839
  |   66: Species N            -1.44563909        7.04678396       57.89151882
  |   67: Species N             2.61458473        3.42777010       55.11633532
  |   68: Species N             1.46860444        5.20155399       53.96412222
  |   69: Species N             3.97954856        2.20311134       53.52773349
  |   70: Species N             5.56028952        1.59581964       59.04179423
  |   71: Species N             1.90878447        3.44077476       51.47857275
  |   72: Species N             1.02182468        0.35043877       56.99059382
  |   73: Species N             3.54028480        3.96454152       56.01328295
  |   74: Species N             0.28907617        5.85803629       53.67255050
  |   75: Species N             1.10548089        5.16799357       59.18253189
  |   76: Species N             5.15917785        1.54677369       53.81930520
  |   77: Species N             0.33888563        0.37758365       60.62845838
  |   78: Species N            -0.07089854        5.82890961       59.47614329
  |   79: Species N             4.46699283        7.07385651       61.52734370
  |   80: Species N             4.38378704        2.25666335       59.33540563
  |   81: Species O             0.85583965        4.09640359       40.23322574
  |   82: Species O             0.44893857        6.89296296       45.74534879
  |   83: Species O             4.51144068        3.27276291       45.20840402
  |   84: Species O             2.12683981        2.31037449       39.99998876
  |   85: Species O             0.71830618        1.44305464       45.51007214
  |   86: Species O             3.24070055        5.05887158       45.44572035
  |   87: Species O             0.28426370        6.77207312       41.83998069
  |   88: Species O             1.02242597        4.21387229       47.35608112
  |   89: Species O             5.08199276        0.59629777       43.60164906
  |   90: Species O            -0.75556371        5.45464584       43.27387309
  |   91: Species O             6.12224247        1.91431091       42.17183602
  |   92: Species O             3.33536898        1.85289679       47.69395349
  |   93: Species O             4.95813012        0.49533443       50.72440246
  |   94: Species O             4.68841466        5.94501854       50.95978110
  |   95: Species O             4.38523823        3.17478674       49.11570981
  |   96: Species O             2.07213206        5.53553802       48.77579777
  |   97: Species O             0.89670711        4.11443509       51.25736986
  |   98: Species O             0.48980603        6.91099445       56.76939093
  |   99: Species O             4.55230660        3.29080164       56.23244616
  |  100: Species O             2.16770573        2.32841322       51.02403090
  |  101: Species O             0.75917209        1.46109336       56.53411428
  |  102: Species O             3.28156646        5.07691030       56.46976249
  |  103: Species O             0.32512961        6.79011185       52.86412482
  |  104: Species O             1.06329189        4.23191102       58.38012326
  |  105: Species O             5.12286681        0.61432926       54.62569121
  |  106: Species O            -0.71469625        5.47267733       54.29791523
  |  107: Species O             6.16310838        1.93234964       53.19587816
  |  108: Species O             3.37623489        1.87093552       58.71799563
  |  109: Species O             4.99899603        0.51337316       61.74854659
  |  110: Species O             4.72928058        5.96305726       61.98382324
  |  111: Species O             4.42610414        3.19282547       60.13975195
  |  112: Species O             2.11299797        5.55357675       59.79994189

  Lattice parameters for 3D lattice (in Angstroms) :     6.595760    7.396030  101.983812
  Angle(s) between unit vectors (in degrees)       :    90.000000   90.000000  102.058002

  |

  | The smallest distance between any two atoms is         1.09404883 AA.
  |
  | The first atom of this pair is atom number                      9 .
  | The second atom of this pair is atom number                    35 .
  | Wigner-Seitz cell of the first atom image           0     0     0 .
  | (The Wigner-Seitz cell of the second atom is 0 0 0  by definition.)

  Quantities derived from the lattice vectors:
  | Reciprocal lattice vector 1:  0.952610  0.203492  0.000000
  | Reciprocal lattice vector 2: -0.000000  0.868701  0.000000
  | Reciprocal lattice vector 3:  0.000000  0.000000  0.061610
  | Unit cell volume                               :   0.486525E+04  A^3

  Range separation radius for Ewald summation (hartree_convergence_parameter):      5.00000000 bohr.

  Fractional coordinates:
                         L1                L2                L3
       atom_frac         0.70223900        0.77144300        0.41625600  H
       atom_frac         0.85278600        0.74813200        0.47042200  H
       atom_frac         0.35004300        0.24736500        0.42158000  H
       atom_frac         0.75366800        0.39370200        0.39758300  H
       atom_frac         0.79963300        0.12525000        0.45171000  H
       atom_frac         0.29888400        0.62525600        0.44025300  H
       atom_frac         0.53204300        0.82993500        0.40420800  H
       atom_frac         0.02207800        0.68936300        0.45833500  H
       atom_frac         0.52044600        0.18899200        0.43358800  H
       atom_frac         0.85663900        0.55545300        0.41020200  H
       atom_frac         0.69810000        0.96439400        0.46442800  H
       atom_frac         0.19567400        0.46339500        0.42765300  H
       atom_frac         0.20636700        0.27336000        0.47552900  H
       atom_frac         0.25936900        0.89619100        0.49422300  H
       atom_frac         0.03706500        0.33214900        0.48761700  H
       atom_frac         0.36103300        0.05709800        0.48152400  H
       atom_frac         0.70901900        0.77393600        0.52435200  H
       atom_frac         0.85956700        0.75062600        0.57851900  H
       atom_frac         0.35682300        0.24985900        0.52967600  H
       atom_frac         0.76044800        0.39619500        0.50567900  H
       atom_frac         0.80641300        0.12774400        0.55980600  H
       atom_frac         0.30566400        0.62775000        0.54835000  H
       atom_frac         0.53882300        0.83242800        0.51230400  H
       atom_frac         0.02885800        0.69185700        0.56643100  H
       atom_frac         0.52722600        0.19148600        0.54168500  H
       atom_frac         0.86341900        0.55794700        0.51829900  H
       atom_frac         0.70488100        0.96688700        0.57252400  H
       atom_frac         0.20245400        0.46588900        0.53574900  H
       atom_frac         0.21314700        0.27585400        0.58362600  H
       atom_frac         0.26614900        0.89868500        0.60231900  H
       atom_frac         0.04384500        0.33464200        0.59571300  H
       atom_frac         0.36781300        0.05959200        0.58962000  H
       atom_frac         0.55095100        0.72621300        0.41150400  C
       atom_frac         0.00372600        0.79332200        0.46563100  C
       atom_frac         0.50140800        0.29262400        0.42629300  C
       atom_frac         0.72070600        0.45340800        0.40696800  C
       atom_frac         0.83370100        0.06615700        0.46109600  C
       atom_frac         0.33167500        0.56546000        0.43086700  C
       atom_frac         0.05540700        0.22818000        0.48032100  C
       atom_frac         0.22539100        0.95533500        0.48483700  C
       atom_frac         0.55773100        0.72870700        0.51960000  C
       atom_frac         0.01050600        0.79581500        0.57372700  C
       atom_frac         0.50818900        0.29511800        0.53438900  C
       atom_frac         0.72748700        0.45590200        0.51506500  C
       atom_frac         0.84048200        0.06865100        0.56919200  C
       atom_frac         0.33845600        0.56795300        0.53896400  C
       atom_frac         0.06218700        0.23067400        0.58841700  C
       atom_frac         0.23217100        0.95782800        0.59293300  C
       atom_frac         0.55179200        0.54746400        0.40547000  N
       atom_frac         0.00226500        0.97178100        0.45955800  N
       atom_frac         0.50063800        0.47142400        0.43234600  N
       atom_frac         0.38433900        0.71666300        0.42104700  N
       atom_frac         0.66792100        0.30210400        0.41676900  N
       atom_frac         0.88791200        0.21814200        0.47083600  N
       atom_frac         0.39405100        0.47322100        0.39667500  N
       atom_frac         0.15949100        0.04595800        0.45072400  N
       atom_frac         0.65837000        0.54563700        0.44114100  N
       atom_frac         0.22677000        0.80742700        0.41818800  N
       atom_frac         0.32819900        0.71202400        0.47221700  N
       atom_frac         0.82551000        0.21136000        0.41962800  N
       atom_frac         0.05682800        0.04971100        0.48639400  N
       atom_frac         0.17125000        0.80340000        0.47509600  N
       atom_frac         0.89957100        0.97552400        0.49520800  N
       atom_frac         0.73094300        0.30950800        0.47371500  N
       atom_frac         0.55857300        0.54995700        0.51356600  N
       atom_frac         0.00904500        0.97427500        0.56765400  N
       atom_frac         0.50741800        0.47391700        0.54044200  N
       atom_frac         0.39112000        0.71915700        0.52914400  N
       atom_frac         0.67470100        0.30459800        0.52486500  N
       atom_frac         0.89469300        0.22063500        0.57893300  N
       atom_frac         0.40083100        0.47571500        0.50477200  N
       atom_frac         0.16627100        0.04845100        0.55882000  N
       atom_frac         0.66515000        0.54813000        0.54923700  N
       atom_frac         0.23355000        0.80992100        0.52628500  N
       atom_frac         0.33497900        0.71451700        0.58031300  N
       atom_frac         0.83229100        0.21385400        0.52772400  N
       atom_frac         0.06360800        0.05220400        0.59449100  N
       atom_frac         0.17803000        0.80589400        0.58319200  N
       atom_frac         0.90635100        0.97801800        0.60330500  N
       atom_frac         0.73772300        0.31200200        0.58181200  N
       atom_frac         0.26242500        0.56636100        0.39450600  O
       atom_frac         0.29130500        0.95300800        0.44855500  O
       atom_frac         0.78998500        0.45248600        0.44329000  O
       atom_frac         0.39728100        0.31942800        0.39221900  O
       atom_frac         0.15564000        0.19951400        0.44624800  O
       atom_frac         0.65517100        0.69943000        0.44561700  O
       atom_frac         0.26242300        0.93629400        0.41026100  O
       atom_frac         0.29148600        0.58260200        0.46434900  O
       atom_frac         0.78980600        0.08244300        0.42753500  O
       atom_frac         0.06210500        0.75414900        0.42432100  O
       atom_frac         0.99020700        0.26466900        0.41351500  O
       atom_frac         0.56569300        0.25617800        0.46766200  O
       atom_frac         0.76775700        0.06848400        0.49737700  O
       atom_frac         0.90336200        0.82194700        0.49968500  O
       atom_frac         0.76767800        0.43894000        0.48160300  O
       atom_frac         0.49343900        0.76533300        0.47827000  O
       atom_frac         0.26920500        0.56885400        0.50260300  O
       atom_frac         0.29808500        0.95550100        0.55665100  O
       atom_frac         0.79676500        0.45498000        0.55138600  O
       atom_frac         0.40406100        0.32192200        0.50031500  O
       atom_frac         0.16242000        0.20200800        0.55434400  O
       atom_frac         0.66195100        0.70192400        0.55371300  O
       atom_frac         0.26920300        0.93878800        0.51835800  O
       atom_frac         0.29826600        0.58509600        0.57244500  O
       atom_frac         0.79658700        0.08493600        0.53563100  O
       atom_frac         0.06888500        0.75664200        0.53241700  O
       atom_frac         0.99698700        0.26716300        0.52161100  O
       atom_frac         0.57247300        0.25867200        0.57575800  O
       atom_frac         0.77453700        0.07097800        0.60547400  O
       atom_frac         0.91014200        0.82444100        0.60778100  O
       atom_frac         0.77445800        0.44143400        0.58969900  O
       atom_frac         0.50021900        0.76782700        0.58636700  O

  Structure-dependent array size parameters: 
  | Maximum number of distinct radial functions  :       21
  | Maximum number of basis functions            :     1280
  | Number of Kohn-Sham states (occupied + empty):      640
------------------------------------------------------------
 Error: The dipole correction needs vacuum z-level to be defined
 Vacuum level will be determined automatically.
 Determine position of vacuum level automatically
 **WARNING** : This feature is experimental and still requires some testing
 **PLEASE ** : If you see it fail, please report.
 Vacuum level determined:
 set_vacuum_level    101.983812000000

------------------------------------------------------------
          Preparing all fixed parts of the calculation.
------------------------------------------------------------
  Determining machine precision:
    2.225073858507201E-308
  Setting up grids for atomic and cluster calculations.

  Creating wave function, potential, and density for free atoms.

  Species: H

  List of occupied orbitals and eigenvalues:
    n    l              occ      energy [Ha]    energy [eV]
    1    0           1.0000        -0.237593        -6.4652


  Species: C

  List of occupied orbitals and eigenvalues:
    n    l              occ      energy [Ha]    energy [eV]
    1    0           2.0000       -10.046810      -273.3876
    2    0           2.0000        -0.503128       -13.6908
    2    1           2.0000        -0.191849        -5.2205


  Species: N

  List of occupied orbitals and eigenvalues:
    n    l              occ      energy [Ha]    energy [eV]
    1    0           2.0000       -14.143973      -384.8771
    2    0           2.0000        -0.682008       -18.5584
    2    1           3.0000        -0.259605        -7.0642


  Species: O

  List of occupied orbitals and eigenvalues:
    n    l              occ      energy [Ha]    energy [eV]
    1    0           2.0000       -18.926989      -515.0296
    2    0           2.0000        -0.880247       -23.9527
    2    1           4.0000        -0.331514        -9.0210

  Creating fixed part of basis set: Ionic, confined, hydrogenic.
 
  H                    hydrogenic:
 
  List of hydrogenic basis orbitals: 
    n    l      effective z      eigenvalue [eV]  inner max. [A]     outer max. [A]     outer radius [A]   
    2    0         2.100000       -14.9728           0.193243           1.317208           4.583499
    2    1         3.500000       -41.6669           0.602369           0.602369           3.723403
 
 
  C                    hydrogenic:
 
  List of hydrogenic basis orbitals: 
    n    l      effective z      eigenvalue [eV]  inner max. [A]     outer max. [A]     outer radius [A]   
    2    1         1.700000        -9.7616           1.230570           1.230570           4.607917
    3    2         6.000000       -54.4224           0.792453           0.792453           3.883070
    2    0         4.900000       -81.6679           0.082559           0.562749           3.078220
 
 
  N                    hydrogenic:
 
  List of hydrogenic basis orbitals: 
    n    l      effective z      eigenvalue [eV]  inner max. [A]     outer max. [A]     outer radius [A]   
    2    1         1.800000       -10.9749           1.177451           1.177451           4.573712
    3    2         6.800000       -69.9026           0.704619           0.704619           3.538137
    3    0         5.800000       -50.8545           0.067388           1.191934           4.250239
 
 
  O                    hydrogenic:
 
  List of hydrogenic basis orbitals: 
    n    l      effective z      eigenvalue [eV]  inner max. [A]     outer max. [A]     outer radius [A]   
    2    1         1.800000       -10.9749           1.164242           1.164242           4.578029
    3    2         7.600000       -87.3180           0.624125           0.624125           3.251020
    3    0         6.400000       -61.9207           0.061167           1.081902           4.001998
 

  Adding cutoff potential to free-atom effective potential.
  Creating atomic-like basis functions for current effective potential.

  Species H                   :

  List of atomic basis orbitals and eigenvalues:
    n    l      energy [Ha]    energy [eV]    outer radius [A]
    1    0        -0.237593        -6.4652       4.527807


  Species C                   :

  List of atomic basis orbitals and eigenvalues:
    n    l      energy [Ha]    energy [eV]    outer radius [A]
    1    0       -10.046810      -273.3876       1.934409
    2    0        -0.503128       -13.6908       4.496620
    2    1        -0.191849        -5.2205       4.551928


  Species N                   :

  List of atomic basis orbitals and eigenvalues:
    n    l      energy [Ha]    energy [eV]    outer radius [A]
    1    0       -14.143973      -384.8771       1.637919
    2    0        -0.682008       -18.5584       4.463241
    2    1        -0.259605        -7.0642       4.518138


  Species O                   :

  List of atomic basis orbitals and eigenvalues:
    n    l      energy [Ha]    energy [eV]    outer radius [A]
    1    0       -18.926989      -515.0296       1.415765
    2    0        -0.880247       -23.9527       4.413171
    2    1        -0.331514        -9.0210       4.522403

  Assembling full basis from fixed parts.
  | Species H :   atomic orbital   1 s accepted.
  | Species H :    hydro orbital   2 s accepted.
  | Species H :    hydro orbital   2 p accepted.
  | Species C :   atomic orbital   1 s accepted.
  | Species C :    hydro orbital   2 s accepted.
  | Species C :   atomic orbital   2 s accepted.
  | Species C :   atomic orbital   2 p accepted.
  | Species C :    hydro orbital   2 p accepted.
  | Species C :    hydro orbital   3 d accepted.
  | Species N :   atomic orbital   1 s accepted.
  | Species N :    hydro orbital   3 s accepted.
  | Species N :   atomic orbital   2 s accepted.
  | Species N :   atomic orbital   2 p accepted.
  | Species N :    hydro orbital   2 p accepted.
  | Species N :    hydro orbital   3 d accepted.
  | Species O :   atomic orbital   1 s accepted.
  | Species O :    hydro orbital   3 s accepted.
  | Species O :   atomic orbital   2 s accepted.
  | Species O :   atomic orbital   2 p accepted.
  | Species O :    hydro orbital   2 p accepted.
  | Species O :    hydro orbital   3 d accepted.
 
  Basis size parameters after reduction:
  | Total number of radial functions:       21
  | Total number of basis functions :     1280
 
  Per-task memory consumption for arrays in subroutine allocate_ext:
  |           7.031384MB.
  Testing on-site integration grid accuracy.
  |  Species  Function  <phi|h_atom|phi> (log., in eV)  <phi|h_atom|phi> (rad., in eV)
           1        1                 -6.4664147733                 -6.4652229287
           1        2                 13.7099062243                 13.7158503352
           1        3                 25.2661739479                 25.2663166526
           2        4               -273.3876219315               -273.3875919975
           2        5                -10.7204647108                -10.7200987593
           2        6                 17.5782951179                 17.5752355749
           2        7                 -5.2222267968                 -5.2237454457
           2        8                  8.6866956299                  8.6634852752
           2        9                 27.4984676176                 27.4985577282
           3       10               -384.8770852102               -384.8770238661
           3       11                 12.5754985571                 12.5755902269
           3       12                -15.7673946340                -15.7673131149
           3       13                 -7.0647024644                 -7.0651952861
           3       14                  8.8117910311                  8.7928686445
           3       15                 35.9641313273                 35.9643080892
           4       16               -515.0295626295               -515.0294562738
           4       17                 15.1698434419                 15.1699322204
           4       18                -21.6038822678                -21.6039118105
           4       19                 -9.0211123393                 -9.0212703513
           4       20                  8.3047696391                  8.2854840999
           4       21                 45.8428042125                 45.8427461222

  Preparing densities etc. for the partition functions (integrals / Hartree potential).

  Preparations completed.
  max(cpu_time)          :      0.257 s.
  Wall clock time (cpu1) :      0.265 s.
------------------------------------------------------------

------------------------------------------------------------
          Begin self-consistency loop: Initialization.

          Date     :  20200214, Time     :  125745.757
------------------------------------------------------------

  Initializing index lists of integration centers etc. from given atomic structure:
  Mapping all atomic coordinates to central unit cell.

  Initializing the k-points
          Using symmetry for reducing the k-points
  | k-points reduced from:       16 to       10
  | Number of k-points                             :        10
  The eigenvectors in the calculations are COMPLEX.
  | Number of basis functions in the Hamiltonian integrals :      7679
  | Number of basis functions in a single unit cell        :      1280
  | Number of centers in hartree potential         :      5623
  | Number of centers in hartree multipole         :      2377
  | Number of centers in electron density summation:      1850
  | Number of centers in basis integrals           :      1938
  | Number of centers in integrals                 :       885
  | Number of centers in hamiltonian               :      1863
  | Consuming          8 KiB for k_phase.
  | Number of super-cells (origin) [n_cells]                     :         189
  | Number of super-cells (after PM_index) [n_cells]             :          54
  | Number of super-cells in hamiltonian [n_cells_in_hamiltonian]:          54
  | Size of matrix packed + index [n_hamiltonian_matrix_size] :     1617781
  Checking for possible mapping of k-points to SMP-nodes
  Running on 1 SMP-nodes
  Mapping of k-points to SMP-nodes is *NOT* possible:
  | 10 k-points  : 1 SMP-nodes
 * The calculation will run, but some performance degradation might result.
 * Check the number of actual k-points above, and consider using a number
 * compute nodes that can be divided cleanly by the number of k points
 * (e.g., two k-points per node, two nodes per k-point, etc.).
  Using simple linear distribution as default method for k-point parallelism.
  * Using 56 tasks for Scalapack Eigenvalue solver.
  Detailed listing of tasks and assigned k-points:
   Task     0 k-point     1 on d035
   Task     1 k-point     1 on d035
   Task     2 k-point     1 on d035
   Task     3 k-point     1 on d035
   Task     4 k-point     1 on d035
   Task     5 k-point     1 on d035
   Task     6 k-point     2 on d035
   Task     7 k-point     2 on d035
   Task     8 k-point     2 on d035
   Task     9 k-point     2 on d035
   Task    10 k-point     2 on d035
   Task    11 k-point     2 on d035
   Task    12 k-point     3 on d035
   Task    13 k-point     3 on d035
   Task    14 k-point     3 on d035
   Task    15 k-point     3 on d035
   Task    16 k-point     3 on d035
   Task    17 k-point     4 on d035
   Task    18 k-point     4 on d035
   Task    19 k-point     4 on d035
   Task    20 k-point     4 on d035
   Task    21 k-point     4 on d035
   Task    22 k-point     4 on d035
   Task    23 k-point     5 on d035
   Task    24 k-point     5 on d035
   Task    25 k-point     5 on d035
   Task    26 k-point     5 on d035
   Task    27 k-point     5 on d035
   Task    28 k-point     6 on d035
   Task    29 k-point     6 on d035
   Task    30 k-point     6 on d035
   Task    31 k-point     6 on d035
   Task    32 k-point     6 on d035
   Task    33 k-point     6 on d035
   Task    34 k-point     7 on d035
   Task    35 k-point     7 on d035
   Task    36 k-point     7 on d035
   Task    37 k-point     7 on d035
   Task    38 k-point     7 on d035
   Task    39 k-point     7 on d035
   Task    40 k-point     8 on d035
   Task    41 k-point     8 on d035
   Task    42 k-point     8 on d035
   Task    43 k-point     8 on d035
   Task    44 k-point     8 on d035
   Task    45 k-point     9 on d035
   Task    46 k-point     9 on d035
   Task    47 k-point     9 on d035
   Task    48 k-point     9 on d035
   Task    49 k-point     9 on d035
   Task    50 k-point     9 on d035
   Task    51 k-point    10 on d035
   Task    52 k-point    10 on d035
   Task    53 k-point    10 on d035
   Task    54 k-point    10 on d035
   Task    55 k-point    10 on d035
  K-point:     1 Tasks:     6 split into      3 X      2 BLACS grid
  Calculating block size based on n_basis =         1280  max_nprow =            5  max_npcol =            2
  ScaLAPACK block size set to:           16
  Allocating        4.424 MB for ovlp_complex
  Allocating        4.424 MB for ham_complex
  Allocating        4.424 MB for eigenvec_complex
  Required Scalapack workspace - INTEGER:            1  REAL:             1  COMPLEX:            1
  Partitioning the integration grid into batches with parallel hashing+maxmin method.
  | Number of batches:     6991
  | Maximal batch size:     154
  | Minimal batch size:      50
  | Average batch size:      93.249
  | Standard deviation of batch sizes:      19.114

  Integration load balanced across    56 MPI tasks.
  Work distribution over tasks is as follows:
  Task     0 has      11616 integration points.
  Task     1 has      11611 integration points.
  Task     2 has      11659 integration points.
  Task     3 has      11648 integration points.
  Task     4 has      11614 integration points.
  Task     5 has      11613 integration points.
  Task     6 has      11662 integration points.
  Task     7 has      11658 integration points.
  Task     8 has      11626 integration points.
  Task     9 has      11657 integration points.
  Task    10 has      11648 integration points.
  Task    11 has      11618 integration points.
  Task    12 has      11657 integration points.
  Task    13 has      11633 integration points.
  Task    14 has      11630 integration points.
  Task    15 has      11610 integration points.
  Task    16 has      11655 integration points.
  Task    17 has      11664 integration points.
  Task    18 has      11616 integration points.
  Task    19 has      11644 integration points.
  Task    20 has      11672 integration points.
  Task    21 has      11661 integration points.
  Task    22 has      11647 integration points.
  Task    23 has      11655 integration points.
  Task    24 has      11616 integration points.
  Task    25 has      11650 integration points.
  Task    26 has      11650 integration points.
  Task    27 has      11657 integration points.
  Task    28 has      11621 integration points.
  Task    29 has      11664 integration points.
  Task    30 has      11654 integration points.
  Task    31 has      11667 integration points.
  Task    32 has      11666 integration points.
  Task    33 has      11650 integration points.
  Task    34 has      11620 integration points.
  Task    35 has      11633 integration points.
  Task    36 has      11623 integration points.
  Task    37 has      11612 integration points.
  Task    38 has      11617 integration points.
  Task    39 has      11637 integration points.
  Task    40 has      11636 integration points.
  Task    41 has      11664 integration points.
  Task    42 has      11662 integration points.
  Task    43 has      11621 integration points.
  Task    44 has      11644 integration points.
  Task    45 has      11653 integration points.
  Task    46 has      11628 integration points.
  Task    47 has      11632 integration points.
  Task    48 has      11660 integration points.
  Task    49 has      11640 integration points.
  Task    50 has      11662 integration points.
  Task    51 has      11614 integration points.
  Task    52 has      11622 integration points.
  Task    53 has      11656 integration points.
  Task    54 has      11639 integration points.
  Task    55 has      11660 integration points.
  Initializing partition tables, free-atom densities, potentials, etc. across the integration grid (initialize_grid_storage).
  | initialize_grid_storage: Actual outermost partition radius vs. multipole_radius_free
  | (-- VB: in principle, multipole_radius_free should be larger, hence this output)
  | Species        1: Confinement radius =              4.999999999999999 AA, multipole_radius_free =              5.054417573612229 AA.
  | Species        1: outer_partition_radius set to              5.054417573612229 AA .
  | Species        2: Confinement radius =              4.999999999999999 AA, multipole_radius_free =              5.019602836301480 AA.
  | Species        2: outer_partition_radius set to              5.019602836301480 AA .
  | Species        3: Confinement radius =              4.999999999999999 AA, multipole_radius_free =              5.043624274424571 AA.
  | Species        3: outer_partition_radius set to              5.043624274424571 AA .
  | Species        4: Confinement radius =              4.999999999999999 AA, multipole_radius_free =              5.048384829883283 AA.
  | Species        4: outer_partition_radius set to              5.048384829883283 AA .
  | Original list of interatomic distances with        1938 x       1938 entries is created.
  | Net number of integration points:   651904
  | of which are non-zero points    :   525759
  | Numerical average free-atom electrostatic potential    :     -1.98048870 eV
  Renormalizing the initial density to the exact electron count on the 3D integration grid.
  | Initial density: Formal number of electrons (from input files) :     608.0000000000
  | Integrated number of electrons on 3D grid     :     607.9981624300
  | Charge integration error                      :      -0.0018375700
  | Normalization factor for density and gradient :       1.0000030223
  Renormalizing the free-atom superposition density to the exact electron count on the 3D integration grid.
  | Formal number of electrons (from input files) :     608.0000000000
  | Integrated number of electrons on 3D grid     :     607.9981624300
  | Charge integration error                      :      -0.0018375700
  | Normalization factor for density and gradient :       1.0000030223
  Obtaining max. number of non-zero basis functions in each batch (get_n_compute_maxes).
  | Maximal number of non-zero basis functions:      558 in task     0
  | Maximal number of non-zero basis functions:      542 in task     1
  | Maximal number of non-zero basis functions:      572 in task     2
  | Maximal number of non-zero basis functions:      547 in task     3
  | Maximal number of non-zero basis functions:      549 in task     4
  | Maximal number of non-zero basis functions:      550 in task     5
  | Maximal number of non-zero basis functions:      552 in task     6
  | Maximal number of non-zero basis functions:      564 in task     7
  | Maximal number of non-zero basis functions:      541 in task     8
  | Maximal number of non-zero basis functions:      563 in task     9
  | Maximal number of non-zero basis functions:      553 in task    10
  | Maximal number of non-zero basis functions:      552 in task    11
  | Maximal number of non-zero basis functions:      544 in task    12
  | Maximal number of non-zero basis functions:      558 in task    13
  | Maximal number of non-zero basis functions:      541 in task    14
  | Maximal number of non-zero basis functions:      554 in task    15
  | Maximal number of non-zero basis functions:      548 in task    16
  | Maximal number of non-zero basis functions:      546 in task    17
  | Maximal number of non-zero basis functions:      556 in task    18
  | Maximal number of non-zero basis functions:      548 in task    19
  | Maximal number of non-zero basis functions:      540 in task    20
  | Maximal number of non-zero basis functions:      557 in task    21
  | Maximal number of non-zero basis functions:      538 in task    22
  | Maximal number of non-zero basis functions:      555 in task    23
  | Maximal number of non-zero basis functions:      594 in task    24
  | Maximal number of non-zero basis functions:      559 in task    25
  | Maximal number of non-zero basis functions:      542 in task    26
  | Maximal number of non-zero basis functions:      558 in task    27
  | Maximal number of non-zero basis functions:      539 in task    28
  | Maximal number of non-zero basis functions:      551 in task    29
  | Maximal number of non-zero basis functions:      562 in task    30
  | Maximal number of non-zero basis functions:      541 in task    31
  | Maximal number of non-zero basis functions:      579 in task    32
  | Maximal number of non-zero basis functions:      560 in task    33
  | Maximal number of non-zero basis functions:      544 in task    34
  | Maximal number of non-zero basis functions:      587 in task    35
  | Maximal number of non-zero basis functions:      595 in task    36
  | Maximal number of non-zero basis functions:      553 in task    37
  | Maximal number of non-zero basis functions:      552 in task    38
  | Maximal number of non-zero basis functions:      571 in task    39
  | Maximal number of non-zero basis functions:      547 in task    40
  | Maximal number of non-zero basis functions:      549 in task    41
  | Maximal number of non-zero basis functions:      554 in task    42
  | Maximal number of non-zero basis functions:      570 in task    43
  | Maximal number of non-zero basis functions:      573 in task    44
  | Maximal number of non-zero basis functions:      564 in task    45
  | Maximal number of non-zero basis functions:      556 in task    46
  | Maximal number of non-zero basis functions:      558 in task    47
  | Maximal number of non-zero basis functions:      541 in task    48
  | Maximal number of non-zero basis functions:      566 in task    49
  | Maximal number of non-zero basis functions:      551 in task    50
  | Maximal number of non-zero basis functions:      553 in task    51
  | Maximal number of non-zero basis functions:      560 in task    52
  | Maximal number of non-zero basis functions:      540 in task    53
  | Maximal number of non-zero basis functions:      564 in task    54
  | Maximal number of non-zero basis functions:      538 in task    55
  Allocating       13.107 MB for KS_eigenvector_complex
  Integrating Hamiltonian matrix: batch-based integration.
  Time summed over all CPUs for integration: real work       67.754 s, elapsed       69.180 s
  Integrating overlap matrix.
  Time summed over all CPUs for integration: real work       52.429 s, elapsed       53.427 s
  Decreasing sparse matrix size:
   Tolerance:  9.999999824516700E-014
   Hamiltonian matrix
  | Array has  1454797 nonzero elements out of  1617781 elements
  | Sparsity factor is 0.101
   Overlap matrix
  | Array has  1362495 nonzero elements out of  1617781 elements
  | Sparsity factor is 0.158
  New size of hamiltonian matrix:     1454803
  Deallocating overlap matrix.

  Updating Kohn-Sham eigenvalues and eigenvectors using ELSI and the ELPA eigensolver.
  Overlap matrix is not singular
  | Lowest eigenvalue of overlap  :  0.16E-02
  | Highest eigenvalue of overlap :  0.86E+01
  Finished singularity check of overlap matrix
  | Time :     0.360 s
  Finished Cholesky decomposition
  | Time :     0.121 s
  Finished transformation to standard eigenproblem
  | Time :     0.221 s
  Starting ELPA eigensolver
  Finished solving standard eigenproblem
[...]
  |   Hirshfeld dipole moment :      0.04058304
  |   Hirshfeld second moments:      0.04996035      -0.01552345      -0.00252705
  |                                 -0.01552345       0.02900587      -0.01751932
  |                                 -0.00252705      -0.01751932       0.02775418
  ----------------------------------------------------------------------
  | Atom   100: O
  |   Hirshfeld charge        :     -0.14081209
  |   Free atom volume        :     23.60491416
  |   Hirshfeld volume        :     21.65326366
  |   Hirshfeld dipole vector :     -0.00696967       0.03315141       0.01137252
  |   Hirshfeld dipole moment :      0.03573411
  |   Hirshfeld second moments:      0.01766584      -0.00013438      -0.01403681
  |                                 -0.00013438       0.06052792       0.01241545
  |                                 -0.01403681       0.01241545       0.04193976
  ----------------------------------------------------------------------
  | Atom   101: O
  |   Hirshfeld charge        :     -0.13998167
  |   Free atom volume        :     23.60491416
  |   Hirshfeld volume        :     21.63885976
  |   Hirshfeld dipole vector :      0.00732641      -0.03285263       0.01086267
  |   Hirshfeld dipole moment :      0.03536904
  |   Hirshfeld second moments:      0.01831016      -0.00019984       0.01413659
  |                                 -0.00019984       0.06091200      -0.01233923
  |                                  0.01413659      -0.01233923       0.04246043
  ----------------------------------------------------------------------
  | Atom   102: O
  |   Hirshfeld charge        :     -0.14116183
  |   Free atom volume        :     23.60491416
  |   Hirshfeld volume        :     21.65614200
  |   Hirshfeld dipole vector :      0.00697094      -0.03319305      -0.01137795
  |   Hirshfeld dipole moment :      0.03577472
  |   Hirshfeld second moments:      0.01741186      -0.00014138      -0.01399402
  |                                 -0.00014138       0.06043328       0.01253365
  |                                 -0.01399402       0.01253365       0.04181596
  ----------------------------------------------------------------------
  | Atom   103: O
  |   Hirshfeld charge        :     -0.15413639
  |   Free atom volume        :     23.60491416
  |   Hirshfeld volume        :     21.86244382
  |   Hirshfeld dipole vector :      0.02022494      -0.03379786       0.02436086
  |   Hirshfeld dipole moment :      0.04631193
  |   Hirshfeld second moments:     -0.00899974       0.00828158       0.00339829
  |                                  0.00828158       0.04897562      -0.00370435
  |                                  0.00339829      -0.00370435       0.05801354
  ----------------------------------------------------------------------
  | Atom   104: O
  |   Hirshfeld charge        :     -0.15432869
  |   Free atom volume        :     23.60491416
  |   Hirshfeld volume        :     21.83242849
  |   Hirshfeld dipole vector :     -0.01950814       0.03408297       0.02423101
  |   Hirshfeld dipole moment :      0.04614497
  |   Hirshfeld second moments:     -0.00887621       0.00820468      -0.00310538
  |                                  0.00820468       0.04938086       0.00350641
  |                                 -0.00310538       0.00350641       0.05929856
  ----------------------------------------------------------------------
  | Atom   105: O
  |   Hirshfeld charge        :     -0.15387408
  |   Free atom volume        :     23.60491416
  |   Hirshfeld volume        :     21.85802799
  |   Hirshfeld dipole vector :     -0.02016693       0.03383187      -0.02446472
  |   Hirshfeld dipole moment :      0.04636619
  |   Hirshfeld second moments:     -0.00875403       0.00825063       0.00338655
  |                                  0.00825063       0.04917017      -0.00350321
  |                                  0.00338655      -0.00350321       0.05812114
  ----------------------------------------------------------------------
  | Atom   106: O
  |   Hirshfeld charge        :     -0.16735169
  |   Free atom volume        :     23.60491416
  |   Hirshfeld volume        :     21.91791209
  |   Hirshfeld dipole vector :      0.04037167      -0.00482425      -0.03000044
  |   Hirshfeld dipole moment :      0.05052892
  |   Hirshfeld second moments:      0.04424486       0.02772403      -0.00885609
  |                                  0.02772403       0.01154947       0.01343907
  |                                 -0.00885609       0.01343907       0.03252912
  ----------------------------------------------------------------------
  | Atom   107: O
  |   Hirshfeld charge        :     -0.16712404
  |   Free atom volume        :     23.60491416
  |   Hirshfeld volume        :     21.91322664
  |   Hirshfeld dipole vector :     -0.04038018       0.00469952       0.02995434
  |   Hirshfeld dipole moment :      0.05049661
  |   Hirshfeld second moments:      0.04443357       0.02765912      -0.00875183
  |                                  0.02765912       0.01170159       0.01351545
  |                                 -0.00875183       0.01351545       0.03271664
  ----------------------------------------------------------------------
  | Atom   108: O
  |   Hirshfeld charge        :     -0.17044351
  |   Free atom volume        :     23.60491416
  |   Hirshfeld volume        :     21.90140768
  |   Hirshfeld dipole vector :      0.04116333      -0.00465142       0.03030386
  |   Hirshfeld dipole moment :      0.05132621
  |   Hirshfeld second moments:      0.04432667       0.02741088       0.00820535
  |                                  0.02741088       0.01062067      -0.01320360
  |                                  0.00820535      -0.01320360       0.03286543
  ----------------------------------------------------------------------
  | Atom   109: O
  |   Hirshfeld charge        :     -0.17888106
  |   Free atom volume        :     23.60491416
  |   Hirshfeld volume        :     22.30633789
  |   Hirshfeld dipole vector :      0.04743688      -0.01916396      -0.02798129
  |   Hirshfeld dipole moment :      0.05831353
  |   Hirshfeld second moments:      0.04351437      -0.01863588       0.01406939
  |                                 -0.01863588       0.00324193       0.02284885
  |                                  0.01406939       0.02284885       0.00168558
  ----------------------------------------------------------------------
  | Atom   110: O
  |   Hirshfeld charge        :     -0.16440614
  |   Free atom volume        :     23.60491416
  |   Hirshfeld volume        :     22.31237875
  |   Hirshfeld dipole vector :      0.00948327       0.04862930      -0.03594431
  |   Hirshfeld dipole moment :      0.06121057
  |   Hirshfeld second moments:     -0.00264084      -0.00374066       0.03035714
  |                                 -0.00374066       0.04378027      -0.00146193
  |                                  0.03035714      -0.00146193       0.01360194
  ----------------------------------------------------------------------
  | Atom   111: O
  |   Hirshfeld charge        :     -0.16027554
  |   Free atom volume        :     23.60491416
  |   Hirshfeld volume        :     22.12447844
  |   Hirshfeld dipole vector :      0.02316333      -0.03266324      -0.03947736
  |   Hirshfeld dipole moment :      0.05623067
  |   Hirshfeld second moments:     -0.01273932       0.01094794       0.00038729
  |                                  0.01094794       0.04701554       0.00171660
  |                                  0.00038729       0.00171660       0.03816613
  ----------------------------------------------------------------------
  | Atom   112: O
  |   Hirshfeld charge        :     -0.16133897
  |   Free atom volume        :     23.60491416
  |   Hirshfeld volume        :     21.87410651
  |   Hirshfeld dipole vector :     -0.04002048       0.00598728      -0.03107864
  |   Hirshfeld dipole moment :      0.05102322
  |   Hirshfeld second moments:      0.04804820       0.03028780       0.00434986
  |                                  0.03028780       0.01296770      -0.01366931
  |                                  0.00434986      -0.01366931       0.03189606
  ----------------------------------------------------------------------

  Converging periodic supercell size for vdw calculation.
  Convergence accuracy (and time!) can be adjusted using the vdw_convergence_threshold keyword.
  | Shell number:     1
  |   VDW energy change:  -0.364916E+01 eV.
  |   Not converged.
  | Shell number:     2
  |   VDW energy change:  -0.682726E-01 eV.
  |   Not converged.
  | Shell number:     3
  |   VDW energy change:  -0.823370E-02 eV.
  |   Not converged.
  | Shell number:     4
  |   VDW energy change:  -0.198435E-02 eV.
  |   Not converged.
  | Shell number:     5
  |   VDW energy change:  -0.664648E-03 eV.
  |   Not converged.
  | Shell number:     6
  |   VDW energy change:  -0.272676E-03 eV.
  |   Not converged.
  | Shell number:     7
  |   VDW energy change:  -0.128850E-03 eV.
  |   Not converged.
  | Shell number:     8
  |   VDW energy change:  -0.676895E-04 eV.
  |   Not converged.
  | Shell number:     9
  |   VDW energy change:  -0.386409E-04 eV.
  |   Not converged.
  | Shell number:    10
  |   VDW energy change:  -0.235895E-04 eV.
  |   Not converged.
  | Shell number:    11
  |   VDW energy change:  -0.152171E-04 eV.
  |   Not converged.
  | Shell number:    12
  |   VDW energy change:  -0.102756E-04 eV.
  |   Not converged.
  | Shell number:    13
  |   VDW energy change:  -0.720861E-05 eV.
  |   Not converged.
  | Shell number:    14
  |   VDW energy change:  -0.522141E-05 eV.
  |   Not converged.
  | Shell number:    15
  |   VDW energy change:  -0.388528E-05 eV.
  |   Not converged.
  | Shell number:    16
  |   VDW energy change:  -0.295778E-05 eV.
  |   Not converged.
  | Shell number:    17
  |   VDW energy change:  -0.229592E-05 eV.
  |   Not converged.
  | Shell number:    18
  |   VDW energy change:  -0.181221E-05 eV.
  |   Not converged.
  | Shell number:    19
  |   VDW energy change:  -0.145128E-05 eV.
  |   Not converged.
  | Shell number:    20
  |   VDW energy change:  -0.117703E-05 eV.
  |   Not converged.
  | Shell number:    21
  |   VDW energy change:  -0.965323E-06 eV.
  |   Converged.

  Total energy components:
  | Sum of eigenvalues            :       -2703.12591741 Ha      -73555.79869056 eV
  | XC energy correction          :        -589.63061289 Ha      -16044.66532045 eV
  | XC potential correction       :         758.17717278 Ha       20631.05056760 eV
  | Free-atom electrostatic energy:       -2215.00876195 Ha      -60273.45509227 eV
  | Hartree energy correction     :         -38.71730279 Ha       -1053.55141311 eV
  | vdW energy correction         :          -0.22877166 Ha          -6.22519373 eV
  | Entropy correction            :           0.00000000 Ha           0.00000000 eV
  | ---------------------------
  | Total energy                  :       -4788.53419393 Ha     -130302.64514252 eV
  | Total energy, T -> 0          :       -4788.53419393 Ha     -130302.64514252 eV  <-- do not rely on this value for anything but (periodic) metals
  | Electronic free energy        :       -4788.53419393 Ha     -130302.64514252 eV

  Derived energy quantities:
  | Kinetic energy                :        4780.57685577 Ha      130086.11495425 eV
  | Electrostatic energy          :       -8979.25166515 Ha     -244337.86958259 eV
  | Energy correction for multipole
  | error in Hartree potential    :           0.83919671 Ha          22.83570423 eV
  | Sum of eigenvalues per atom                           :        -656.74820259 eV
  | Total energy (T->0) per atom                          :       -1163.41647449 eV  <-- do not rely on this value for anything but (periodic) metals
  | Electronic free energy per atom                       :       -1163.41647449 eV
  Timings for VdW correction (Tkatchenko-Scheffler 2009 or later):
  | CPU time:        4.290 s, Wall clock time:        4.289 s.

  Energy and forces in a compact form:
  | Total energy uncorrected      :         -0.130302645142520E+06 eV
  | Total energy corrected        :         -0.130302645142520E+06 eV  <-- do not rely on this value for anything but (periodic) metals
  | Electronic free energy        :         -0.130302645142520E+06 eV

  ------------------------------------ 
  Start decomposition of the XC Energy 
  ------------------------------------ 
  X and C from original XC functional choice 
  Hartree-Fock Energy :          0.000000000 Ha              0.000000000 eV
  X Energy            :       -568.562976806 Ha         -15471.385774343 eV
  C Energy            :        -21.067636088 Ha           -573.279546110 eV
  Total XC Energy     :       -589.630612895 Ha         -16044.665320453 eV
  ------------------------------------ 
  LDA X and C from self-consistent density 
  X Energy LDA        :       -517.195462706 Ha         -14073.604597349 eV
  C Energy LDA        :        -41.241020593 Ha          -1122.225268521 eV
  ------------------------------------ 
  End decomposition of the XC Energy 
  ------------------------------------ 

------------------------------------------------------------

------------------------------------------------------------------------------
  Final output of selected total energy values:

  The following output summarizes some interesting total energy values
  at the end of a run (AFTER all relaxation, molecular dynamics, etc.).

  | Total energy of the DFT / Hartree-Fock s.c.f. calculation      :        -130302.645142520 eV
  | Final zero-broadening corrected energy (caution - metals only) :        -130302.645142520 eV
  | For reference only, the value of 1 Hartree used in FHI-aims is :             27.211384500 eV

  Before relying on these values, please be sure to understand exactly which
  total energy value is referred to by a given number. Different objects may
  all carry the same name 'total energy'. Definitions:

  Total energy of the DFT / Hartree-Fock s.c.f. calculation:
  | Note that this energy does not include ANY quantities calculated after the
  | s.c.f. cycle, in particular not ANY RPA, MP2, etc. many-body perturbation terms.

  Final zero-broadening corrected energy:
  | For metallic systems only, a broadening of the occupation numbers at the Fermi
  | level can be extrapolated back to zero broadening by an electron-gas inspired
  | formula. For all systems that are not real metals, this value can be
  | meaningless and should be avoided.

------------------------------------------------------------------------------
  Methods described in the following list of references were used in this FHI-aims run.
  If you publish the results, please make sure to cite these reference if they apply.
  FHI-aims is an academic code, and for our developers (often, Ph.D. students
  and postdocs), scientific credit in the community is essential.
  Thank you for helping us!

  For any use of FHI-aims, please cite:

    Volker Blum, Ralf Gehrke, Felix Hanke, Paula Havu, Ville Havu,
    Xinguo Ren, Karsten Reuter, and Matthias Scheffler
    'Ab initio molecular simulations with numeric atom-centered orbitals'
    Computer Physics Communications 180, 2175-2196 (2009)
    http://dx.doi.org/10.1016/j.cpc.2009.06.022


  The scalable eigensolver library ELPA was used in your run.
  ELPA is essential especially for large systems on hundreds or thousands of CPUs.
  For ELPA, please cite:

    Andreas Marek, Volker Blum, Rainer Johanni, Ville Havu, Bruno Lang,
    Thomas Auckenthaler, Alexander Heinecke, Hans-Joachim Bungartz, and Hermann Lederer,
    'The ELPA Library - Scalable Parallel Eigenvalue Solutions
    for Electronic Structure Theory and Computational Science'
    The Journal of Physics: Condensed Matter 26, 213201 (2014).
    http://dx.doi.org/10.1088/0953-8984/26/21/213201


  The ELSI infrastructure was used in your run to solve the Kohn-Sham electronic structure.
  Please check out http://elsi-interchange.org to learn more.
  If scalability is important for your project, please acknowledge ELSI by citing:

    V. W-z. Yu, F. Corsetti, A. Garcia, W. P. Huhn, M. Jacquelin, W. Jia,
    B. Lange, L. Lin, J. Lu, W. Mi, A. Seifitokaldani, A. Vazquez-Mayagoitia,
    C. Yang, H. Yang, and V. Blum
    'ELSI: A unified software interface for Kohn-Sham electronic structure solvers'
    Computer Physics Communications 222, 267-285 (2018).
    http://dx.doi.org/10.1016/j.cpc.2017.09.007


  For the real-space grid partitioning and parallelization used in this calculation, please cite:

    Ville Havu, Volker Blum, Paula Havu, and Matthias Scheffler,
    'Efficient O(N) integration for all-electron electronic structure calculation'
    'using numerically tabulated basis functions'
    Journal of Computational Physics 228, 8367-8379 (2009).
    http://dx.doi.org/10.1016/j.jcp.2009.08.008

  Of course, there are many other important community references, e.g., those cited in the
  above references. Our list is limited to references that describe implementations in the
  FHI-aims code. The reason is purely practical (length of this list) - please credit others as well.

------------------------------------------------------------
          Leaving FHI-aims.
          Date     :  20200214, Time     :  130357.775

          Computational steps:
          | Number of self-consistency cycles          :           27
          | Number of SCF (re)initializations          :            1

          Detailed time accounting                     :  max(cpu_time)    wall_clock(cpu1)
          | Total time                                 :      372.304 s         372.408 s
          | Preparation time                           :        0.257 s           0.265 s
          | Boundary condition initalization           :        2.754 s           2.754 s
          | Grid partitioning                          :        1.425 s           1.424 s
          | Preloading free-atom quantities on grid    :        0.009 s           0.008 s
          | Free-atom superposition energy             :        0.357 s           0.357 s
          | Total time for integrations                :       36.783 s          36.784 s
          | Total time for solution of K.-S. equations :       40.046 s          40.050 s
          | Total time for density update              :       59.205 s          59.099 s
          | Total time for mixing & preconditioning    :      109.041 s         109.051 s
          | Total time for Hartree multipole update    :        0.205 s           0.215 s
          | Total time for Hartree multipole sum       :      115.740 s         115.753 s
          | Total time for total energy evaluation     :        0.018 s           0.054 s
          | Total time for scaled ZORA corrections     :        0.000 s           0.000 s
          | Total time for vdW correction              :        4.290 s           4.289 s

          Partial memory accounting:
          | Residual value for overall tracked memory usage across tasks :        2498.142 MB (should be 0.000 MB)
          |
          | Largest tracked array allocation (+KS_eigenvector_complex):
          |   Minimum:       13.107 MB (on task  1)
          |   Maximum:       13.107 MB (on task  1)
          |   Average:       13.107 MB
          |
          | Because the residual tracked memory usage was not zero, the peak value for overall
          | tracked memory usage was not output, as it is probably incorrect.  This is likely due
          | to a missing aims_deallocate statement in the source code, which should be otherwise
          | harmless.
          |
          Note:  These values currently only include a subset of arrays which are explicitly tracked.
          The "true" memory usage will be greater.

          Have a nice day.
------------------------------------------------------------
