  MPI-parallelism will be employed.
------------------------------------------------------------
          Invoking FHI-aims ...
          Version 180424
          Compiled on 2018/04/28 at 19:12:01 on host coe.psc.edu.

          When using FHI-aims, please cite the following reference:

          Volker Blum, Ralf Gehrke, Felix Hanke, Paula Havu,
          Ville Havu, Xinguo Ren, Karsten Reuter, and Matthias Scheffler,
          'Ab Initio Molecular Simulations with Numeric Atom-Centered Orbitals',
          Computer Physics Communications 180, 2175-2196 (2009)

          For any questions about FHI-aims, please visit the aimsclub website
          with its forums and wiki. Contributions to both the forums and the
          wiki are warmly encouraged - they are for you, and everyone is welcome there.

------------------------------------------------------------



  Date     :  20200214, Time     :  164630.649
  Time zero on CPU 1             :   0.447080000000000E-01  s.
  Internal wall clock time zero  :           350930790.649  s.

  FHI-aims created a unique identifier for this run for later identification
  aims_uuid : 10B2CA82-9CB7-4E1B-A1E9-CD9B1FFF62EA

  Using       56 parallel tasks.
  Task        0 on host f010 reporting.
  Task        1 on host f010 reporting.
  Task        2 on host f010 reporting.
  Task        3 on host f010 reporting.
  Task        4 on host f010 reporting.
  Task        5 on host f010 reporting.
  Task        6 on host f010 reporting.
  Task        7 on host f010 reporting.
  Task        8 on host f010 reporting.
  Task        9 on host f010 reporting.
  Task       10 on host f010 reporting.
  Task       11 on host f010 reporting.
  Task       12 on host f010 reporting.
  Task       13 on host f010 reporting.
  Task       14 on host f010 reporting.
  Task       15 on host f010 reporting.
  Task       16 on host f010 reporting.
  Task       17 on host f010 reporting.
  Task       18 on host f010 reporting.
  Task       19 on host f010 reporting.
  Task       20 on host f010 reporting.
  Task       21 on host f010 reporting.
  Task       22 on host f010 reporting.
  Task       23 on host f010 reporting.
  Task       24 on host f010 reporting.
  Task       25 on host f010 reporting.
  Task       26 on host f010 reporting.
  Task       27 on host f010 reporting.
  Task       28 on host f010 reporting.
  Task       29 on host f010 reporting.
  Task       30 on host f010 reporting.
  Task       31 on host f010 reporting.
  Task       32 on host f010 reporting.
  Task       33 on host f010 reporting.
  Task       34 on host f010 reporting.
  Task       35 on host f010 reporting.
  Task       36 on host f010 reporting.
  Task       37 on host f010 reporting.
  Task       38 on host f010 reporting.
  Task       39 on host f010 reporting.
  Task       40 on host f010 reporting.
  Task       41 on host f010 reporting.
  Task       42 on host f010 reporting.
  Task       43 on host f010 reporting.
  Task       44 on host f010 reporting.
  Task       45 on host f010 reporting.
  Task       46 on host f010 reporting.
  Task       47 on host f010 reporting.
  Task       48 on host f010 reporting.
  Task       49 on host f010 reporting.
  Task       50 on host f010 reporting.
  Task       51 on host f010 reporting.
  Task       52 on host f010 reporting.
  Task       53 on host f010 reporting.
  Task       54 on host f010 reporting.
  Task       55 on host f010 reporting.

  Performing system and environment tests:
  *** Environment variable OMP_NUM_THREADS is not set
  *** For performance reasons you might want to set it to 1
  | Stacksize not measured: no C compiler
  | Checking for scalapack...
  | Testing pdtran()...
  | All pdtran() tests passed.

  Obtaining array dimensions for all initial allocations:
  
  -----------------------------------------------------------------------
  Parsing control.in (first pass over file, find array dimensions only).
  The contents of control.in will be repeated verbatim below
  unless switched off by setting 'verbatim_writeout .false.' .
  in the first line of control.in .
  -----------------------------------------------------------------------
  
  #===============================================================================
  # FHI-aims file: ./control.in
  # Created using the Atomic Simulation Environment (ASE)
  # Tue Feb 11 11:38:07 2020
  #===============================================================================
  xc                                 pbe
  spin                               none
  relativistic                       atomic_zora scalar
  charge                             0
  occupation_type                    gaussian 0.01
  mixer                              pulay
  n_max_pulay                        8
  charge_mix_param                   0.02
  sc_accuracy_rho                    0.0001
  sc_accuracy_eev                    0.01
  sc_accuracy_etot                   1e-06
  sc_iter_limit                      10000
  KS_method                          parallel
  empty_states                       6
  basis_threshold                    1e-05
  k_grid                             4 4 1
  vdw_correction_hirshfeld
  use_dipole_correction              .true.
  #===============================================================================
  
  ################################################################################
  #
  #  FHI-aims code project
  #  VB, Fritz-Haber Institut, 2009
  #
  #  Suggested "light" defaults for H atom (to be pasted into control.in file)
  #  Be sure to double-check any results obtained with these settings for post-processing,
  #  e.g., with the "tight" defaults and larger basis sets.
  #
  ################################################################################
    species        H
  #     global species definitions
      nucleus             1
      mass                1.00794
  #
      l_hartree           4
  #
      cut_pot             3.5  1.5  1.0
      basis_dep_cutoff    1e-4
  #
      radial_base         24 5.0
      radial_multiplier   1
      angular_grids       specified
        division   0.2421   50
        division   0.3822  110
        division   0.4799  194
        division   0.5341  302
  #      division   0.5626  434
  #      division   0.5922  590
  #      division   0.6542  770
  #      division   0.6868 1202
  #      outer_grid  770
        outer_grid  302
  ################################################################################
  #
  #  Definition of "minimal" basis
  #
  ################################################################################
  #     valence basis states
      valence      1  s   1.
  #     ion occupancy
      ion_occ      1  s   0.5
  ################################################################################
  #
  #  Suggested additional basis functions. For production calculations,
  #  uncomment them one after another (the most important basis functions are
  #  listed first).
  #
  #  Basis constructed for dimers: 0.5 A, 0.7 A, 1.0 A, 1.5 A, 2.5 A
  #
  ################################################################################
  #  "First tier" - improvements: -1014.90 meV to -62.69 meV
       hydro 2 s 2.1
       hydro 2 p 3.5
  #  "Second tier" - improvements: -12.89 meV to -1.83 meV
  #     hydro 1 s 0.85
  #     hydro 2 p 3.7
  #     hydro 2 s 1.2
  #     hydro 3 d 7
  #  "Third tier" - improvements: -0.25 meV to -0.12 meV
  #     hydro 4 f 11.2
  #     hydro 3 p 4.8
  #     hydro 4 d 9
  #     hydro 3 s 3.2
  ################################################################################
  #
  #  FHI-aims code project
  #  VB, Fritz-Haber Institut, 2009
  #
  #  Suggested "light" defaults for C atom (to be pasted into control.in file)
  #  Be sure to double-check any results obtained with these settings for post-processing,
  #  e.g., with the "tight" defaults and larger basis sets.
  #
  ################################################################################
    species        C
  #     global species definitions
      nucleus             6
      mass                12.0107
  #
      l_hartree           4
  #
      cut_pot             3.5  1.5  1.0
      basis_dep_cutoff    1e-4
  #
      radial_base         34 5.0
      radial_multiplier   1
      angular_grids specified
        division   0.3326   50
        division   0.5710  110
        division   0.7727  194
        division   0.8772  302
  #      division   0.9334  434
  #      division   0.9625  590
  #      division   0.9924  770
  #      division   1.0230  974
  #      division   1.4589 1202
  #     outer_grid  974
       outer_grid 302
  ################################################################################
  #
  #  Definition of "minimal" basis
  #
  ################################################################################
  #     valence basis states
      valence      2  s   2.
      valence      2  p   2.
  #     ion occupancy
      ion_occ      2  s   1.
      ion_occ      2  p   1.
  ################################################################################
  #
  #  Suggested additional basis functions. For production calculations,
  #  uncomment them one after another (the most important basis functions are
  #  listed first).
  #
  #  Constructed for dimers: 1.0 A, 1.25 A, 1.5 A, 2.0 A, 3.0 A
  #
  ################################################################################
  #  "First tier" - improvements: -1214.57 meV to -155.61 meV
       hydro 2 p 1.7
       hydro 3 d 6
       hydro 2 s 4.9
  #  "Second tier" - improvements: -67.75 meV to -5.23 meV
  #     hydro 4 f 9.8
  #     hydro 3 p 5.2
  #     hydro 3 s 4.3
  #     hydro 5 g 14.4
  #     hydro 3 d 6.2
  #  "Third tier" - improvements: -2.43 meV to -0.60 meV
  #     hydro 2 p 5.6
  #     hydro 2 s 1.4
  #     hydro 3 d 4.9
  #     hydro 4 f 11.2
  #  "Fourth tier" - improvements: -0.39 meV to -0.18 meV
  #     hydro 2 p 2.1
  #     hydro 5 g 16.4
  #     hydro 4 d 13.2
  #     hydro 3 s 13.6
  #     hydro 4 f 17.6
  #  Further basis functions - improvements: -0.08 meV and below
  #     hydro 3 s 2
  #     hydro 3 p 6
  #     hydro 4 d 20
  ################################################################################
  #
  #  FHI-aims code project
  #  VB, Fritz-Haber Institut, 2009
  #
  #  Suggested "light" defaults for N atom (to be pasted into control.in file)
  #  Be sure to double-check any results obtained with these settings for post-processing,
  #  e.g., with the "tight" defaults and larger basis sets.
  #
  ################################################################################
    species        N
  #     global species definitions
      nucleus             7
      mass                14.0067
  #
      l_hartree           4
  #
      cut_pot             3.5  1.5  1.0
      basis_dep_cutoff    1e-4
  #
      radial_base         35 5.0
      radial_multiplier   1
      angular_grids       specified
        division   0.2599   50
        division   0.4601  110
        division   0.5885  194
        division   0.6503  302
  #      division   0.6939  434
  #      division   0.7396  590
  #      division   0.7632  770
  #      division   0.8122  974
  #      division   1.1604 1202
  #      outer_grid  974
        outer_grid  302
  ################################################################################
  #
  #  Definition of "minimal" basis
  #
  ################################################################################
  #     valence basis states
      valence      2  s   2.
      valence      2  p   3.
  #     ion occupancy
      ion_occ      2  s   1.
      ion_occ      2  p   2.
  ################################################################################
  #
  #  Suggested additional basis functions. For production calculations,
  #  uncomment them one after another (the most important basis functions are
  #  listed first).
  #
  #  Constructed for dimers: 1.0 A, 1.1 A, 1.5 A, 2.0 A, 3.0 A
  #
  ################################################################################
  #  "First tier" - improvements: -1193.42 meV to -220.60 meV
       hydro 2 p 1.8
       hydro 3 d 6.8
       hydro 3 s 5.8
  #  "Second tier" - improvements: -80.21 meV to -6.86 meV
  #     hydro 4 f 10.8
  #     hydro 3 p 5.8
  #     hydro 1 s 0.8
  #     hydro 5 g 16
  #     hydro 3 d 4.9
  #  "Third tier" - improvements: -4.29 meV to -0.53 meV
  #     hydro 3 s 16
  #     ionic 2 p auto
  #     hydro 3 d 6.6
  #     hydro 4 f 11.6
  #  "Fourth tier" - improvements: -0.75 meV to -0.25 meV
  #     hydro 2 p 4.5
  #     hydro 2 s 2.4
  #     hydro 5 g 14.4
  #     hydro 4 d 14.4
  #     hydro 4 f 16.8
  # Further basis functions - -0.21 meV and below
  #     hydro 3 p 14.8
  #     hydro 3 s 4.4
  #     hydro 3 d 19.6
  #     hydro 5 g 12.8
  ################################################################################
  #
  #  FHI-aims code project
  #  VB, Fritz-Haber Institut, 2009
  #
  #  Suggested "light" defaults for O atom (to be pasted into control.in file)
  #  Be sure to double-check any results obtained with these settings for post-processing,
  #  e.g., with the "tight" defaults and larger basis sets.
  #
  ################################################################################
    species        O
  #     global species definitions
      nucleus             8
      mass                15.9994
  #
      l_hartree           4
  #
      cut_pot             3.5  1.5  1.0
      basis_dep_cutoff    1e-4
  #
      radial_base         36 5.0
      radial_multiplier   1
       angular_grids specified
        division   0.2659   50
        division   0.4451  110
        division   0.6052  194
        division   0.7543  302
  #      division   0.8014  434
  #      division   0.8507  590
  #      division   0.8762  770
  #      division   0.9023  974
  #      division   1.2339 1202
  #      outer_grid 974
        outer_grid 302
  ################################################################################
  #
  #  Definition of "minimal" basis
  #
  ################################################################################
  #     valence basis states
      valence      2  s   2.
      valence      2  p   4.
  #     ion occupancy
      ion_occ      2  s   1.
      ion_occ      2  p   3.
  ################################################################################
  #
  #  Suggested additional basis functions. For production calculations,
  #  uncomment them one after another (the most important basis functions are
  #  listed first).
  #
  #  Constructed for dimers: 1.0 A, 1.208 A, 1.5 A, 2.0 A, 3.0 A
  #
  ################################################################################
  #  "First tier" - improvements: -699.05 meV to -159.38 meV
       hydro 2 p 1.8
       hydro 3 d 7.6
       hydro 3 s 6.4
  #  "Second tier" - improvements: -49.91 meV to -5.39 meV
  #     hydro 4 f 11.6
  #     hydro 3 p 6.2
  #     hydro 3 d 5.6
  #     hydro 5 g 17.6
  #     hydro 1 s 0.75
  #  "Third tier" - improvements: -2.83 meV to -0.50 meV
  #     ionic 2 p auto
  #     hydro 4 f 10.8
  #     hydro 4 d 4.7
  #     hydro 2 s 6.8
  #  "Fourth tier" - improvements: -0.40 meV to -0.12 meV
  #     hydro 3 p 5
  #     hydro 3 s 3.3
  #     hydro 5 g 15.6
  #     hydro 4 f 17.6
  #     hydro 4 d 14
  # Further basis functions - -0.08 meV and below
  #     hydro 3 s 2.1
  #     hydro 4 d 11.6
  #     hydro 3 p 16
  #     hydro 2 s 17.2
  
  -----------------------------------------------------------------------
  Completed first pass over input file control.in .
  -----------------------------------------------------------------------
  
  
  -----------------------------------------------------------------------
  Parsing geometry.in (first pass over file, find array dimensions only).
  The contents of geometry.in will be repeated verbatim below
  unless switched off by setting 'verbatim_writeout .false.' .
  in the first line of geometry.in .
  -----------------------------------------------------------------------
  
  #=======================================================
  # FHI-aims file: ./geometry.in
  # Created using the Atomic Simulation Environment (ASE)
  # Tue Feb 11 11:38:07 2020
  #=======================================================
  lattice_vector 6.5957600000000003 0.0000000000000000 0.0000000000000000
  lattice_vector -1.5450440000000001 7.2328489999999999 0.0000000000000000
  lattice_vector 0.0000000000000000 0.0000000000000000 179.1604250000000036
  atom_frac 0.7022389999999999 0.7714430000000000 0.2369460000000000 H
  atom_frac 0.8527860000000000 0.7481320000000000 0.2677790000000000 H
  atom_frac 0.3500430000000000 0.2473650000000000 0.2399770000000000 H
  atom_frac 0.7536680000000000 0.3937020000000000 0.2263170000000000 H
  atom_frac 0.7996330000000000 0.1252500000000000 0.2571270000000000 H
  atom_frac 0.2988840000000000 0.6252560000000000 0.2506060000000000 H
  atom_frac 0.5320430000000000 0.8299350000000000 0.2300880000000000 H
  atom_frac 0.0220780000000000 0.6893629999999999 0.2608990000000000 H
  atom_frac 0.5204460000000000 0.1889920000000000 0.2468120000000000 H
  atom_frac 0.8566390000000000 0.5554530000000000 0.2335000000000000 H
  atom_frac 0.6981000000000001 0.9643940000000000 0.2643670000000000 H
  atom_frac 0.1956740000000000 0.4633950000000000 0.2434340000000000 H
  atom_frac 0.2063670000000000 0.2733600000000000 0.2706860000000000 H
  atom_frac 0.2593690000000000 0.8961910000000000 0.2813270000000000 H
  atom_frac 0.0370650000000000 0.3321490000000000 0.2775670000000000 H
  atom_frac 0.3610330000000000 0.0570980000000000 0.2740990000000000 H
  atom_frac 0.7090190000000000 0.7739360000000000 0.2984780000000000 H
  atom_frac 0.8595670000000000 0.7506260000000000 0.3293110000000000 H
  atom_frac 0.3568230000000001 0.2498590000000000 0.3015090000000000 H
  atom_frac 0.7604480000000000 0.3961950000000000 0.2878490000000000 H
  atom_frac 0.8064130000000000 0.1277440000000000 0.3186590000000000 H
  atom_frac 0.3056640000000000 0.6277500000000000 0.3121380000000000 H
  atom_frac 0.5388230000000001 0.8324279999999999 0.2916200000000000 H
  atom_frac 0.0288580000000000 0.6918570000000001 0.3224310000000000 H
  atom_frac 0.5272260000000000 0.1914860000000000 0.3083440000000000 H
  atom_frac 0.8634190000000002 0.5579470000000000 0.2950320000000000 H
  atom_frac 0.7048810000000000 0.9668869999999999 0.3258990000000000 H
  atom_frac 0.2024540000000000 0.4658890000000000 0.3049660000000000 H
  atom_frac 0.2131470000000000 0.2758540000000000 0.3322180000000000 H
  atom_frac 0.2661490000000000 0.8986850000000000 0.3428590000000000 H
  atom_frac 0.0438450000000000 0.3346419999999999 0.3390990000000000 H
  atom_frac 0.3678130000000000 0.0595920000000000 0.3356310000000000 H
  atom_frac 0.7158010000000001 0.7764300000000000 0.3600210000000000 H
  atom_frac 0.8663480000000000 0.7531200000000000 0.3908540000000000 H
  atom_frac 0.3636040000000000 0.2523530000000000 0.3630520000000000 H
  atom_frac 0.7672289999999999 0.3986900000000000 0.3493920000000000 H
  atom_frac 0.8131939999999999 0.1302380000000000 0.3802020000000000 H
  atom_frac 0.3124460000000000 0.6302440000000000 0.3736809999999999 H
  atom_frac 0.5456050000000000 0.8349220000000001 0.3531630000000000 H
  atom_frac 0.0356400000000000 0.6943510000000001 0.3839740000000000 H
  atom_frac 0.5340080000000000 0.1939800000000000 0.3698870000000000 H
  atom_frac 0.8702010000000000 0.5604410000000000 0.3565750000000000 H
  atom_frac 0.7116620000000000 0.9693820000000000 0.3874420000000000 H
  atom_frac 0.2092350000000000 0.4683830000000000 0.3665089999999999 H
  atom_frac 0.2199280000000000 0.2783480000000000 0.3937620000000000 H
  atom_frac 0.2729310000000000 0.9011790000000000 0.4044020000000000 H
  atom_frac 0.0506270000000000 0.3371370000000000 0.4006420000000000 H
  atom_frac 0.3745940000000000 0.0620860000000000 0.3971740000000000 H
  atom_frac 0.7225810000000000 0.7789239999999999 0.4215530000000000 H
  atom_frac 0.8731279999999999 0.7556140000000000 0.4523860000000000 H
  atom_frac 0.3703850000000000 0.2548470000000000 0.4245840000000000 H
  atom_frac 0.7740089999999998 0.4011830000000000 0.4109240000000000 H
  atom_frac 0.8199740000000000 0.1327320000000000 0.4417340000000000 H
  atom_frac 0.3192260000000000 0.6327380000000000 0.4352130000000000 H
  atom_frac 0.5523850000000000 0.8374160000000000 0.4146949999999999 H
  atom_frac 0.0424200000000000 0.6968450000000000 0.4455060000000000 H
  atom_frac 0.5407880000000000 0.1964740000000000 0.4314190000000000 H
  atom_frac 0.8769810000000000 0.5629340000000000 0.4181070000000000 H
  atom_frac 0.7184420000000000 0.9718750000000000 0.4489740000000000 H
  atom_frac 0.2160160000000000 0.4708770000000000 0.4280410000000000 H
  atom_frac 0.2267090000000000 0.2808410000000000 0.4552930000000000 H
  atom_frac 0.2797110000000000 0.9036729999999999 0.4659340000000001 H
  atom_frac 0.0574070000000000 0.3396300000000000 0.4621740000000000 H
  atom_frac 0.3813740000000000 0.0645800000000000 0.4587060000000000 H
  atom_frac 0.7293620000000000 0.7814179999999999 0.4830960000000000 H
  atom_frac 0.8799100000000000 0.7581080000000000 0.5139290000000000 H
  atom_frac 0.3771659999999999 0.2573410000000000 0.4861269999999999 H
  atom_frac 0.7807910000000000 0.4036770000000000 0.4724670000000001 H
  atom_frac 0.8267560000000000 0.1352260000000000 0.5032780000000000 H
  atom_frac 0.3260070000000000 0.6352320000000000 0.4967560000000000 H
  atom_frac 0.5591660000000001 0.8399100000000000 0.4762380000000000 H
  atom_frac 0.0492010000000000 0.6993390000000000 0.5070490000000000 H
  atom_frac 0.5475690000000000 0.1989680000000000 0.4929620000000000 H
  atom_frac 0.8837619999999999 0.5654280000000000 0.4796500000000000 H
  atom_frac 0.7252240000000000 0.9743690000000000 0.5105170000000000 H
  atom_frac 0.2227970000000000 0.4733710000000000 0.4895840000000000 H
  atom_frac 0.2334900000000000 0.2833350000000000 0.5168370000000000 H
  atom_frac 0.2864920000000000 0.9061669999999999 0.5274770000000000 H
  atom_frac 0.0641880000000000 0.3421240000000000 0.5237170000000000 H
  atom_frac 0.3881560000000000 0.0670740000000000 0.5202490000000000 H
  atom_frac 0.7361420000000000 0.7839120000000001 0.5446280000000000 H
  atom_frac 0.8866900000000000 0.7606010000000000 0.5754610000000000 H
  atom_frac 0.3839460000000000 0.2598350000000000 0.5476590000000000 H
  atom_frac 0.7875710000000000 0.4061710000000000 0.5339990000000000 H
  atom_frac 0.8335359999999999 0.1377200000000000 0.5648090000000000 H
  atom_frac 0.3327870000000000 0.6377250000000000 0.5582880000000000 H
  atom_frac 0.5659470000000000 0.8424040000000000 0.5377700000000000 H
  atom_frac 0.0559820000000000 0.7018320000000000 0.5685810000000000 H
  atom_frac 0.5543490000000000 0.2014620000000000 0.5544940000000000 H
  atom_frac 0.8905430000000000 0.5679219999999999 0.5411820000000001 H
  atom_frac 0.7320040000000000 0.9768630000000000 0.5720490000000000 H
  atom_frac 0.2295770000000000 0.4758650000000000 0.5511160000000001 H
  atom_frac 0.2402700000000000 0.2858290000000000 0.5783680000000000 H
  atom_frac 0.2932730000000000 0.9086600000000000 0.5890090000000000 H
  atom_frac 0.0709680000000000 0.3446180000000000 0.5852490000000000 H
  atom_frac 0.3949360000000000 0.0695670000000000 0.5817810000000000 H
  atom_frac 0.7429240000000000 0.7864060000000000 0.6061710000000000 H
  atom_frac 0.8934710000000000 0.7630950000000000 0.6370040000000000 H
  atom_frac 0.3907280000000000 0.2623290000000000 0.6092020000000000 H
  atom_frac 0.7943519999999999 0.4086650000000000 0.5955420000000000 H
  atom_frac 0.8403170000000000 0.1402140000000000 0.6263530000000000 H
  atom_frac 0.3395690000000000 0.6402190000000000 0.6198310000000000 H
  atom_frac 0.5727280000000000 0.8448980000000000 0.5993130000000000 H
  atom_frac 0.0627630000000000 0.7043270000000000 0.6301240000000000 H
  atom_frac 0.5611310000000000 0.2039560000000000 0.6160369999999999 H
  atom_frac 0.8973240000000001 0.5704160000000001 0.6027250000000000 H
  atom_frac 0.7387850000000000 0.9793570000000000 0.6335920000000000 H
  atom_frac 0.2363590000000000 0.4783590000000000 0.6126590000000000 H
  atom_frac 0.2470510000000000 0.2883230000000000 0.6399120000000000 H
  atom_frac 0.3000540000000000 0.9111540000000000 0.6505520000000000 H
  atom_frac 0.0777500000000000 0.3471120000000000 0.6467920000000000 H
  atom_frac 0.4017170000000000 0.0720620000000000 0.6433240000000000 H
  atom_frac 0.7497040000000000 0.7889000000000000 0.6677030000000000 H
  atom_frac 0.9002510000000000 0.7655890000000000 0.6985360000000000 H
  atom_frac 0.3975080000000000 0.2648220000000000 0.6707340000000001 H
  atom_frac 0.8011330000000000 0.4111590000000000 0.6570740000000000 H
  atom_frac 0.8470980000000000 0.1427070000000000 0.6878840000000001 H
  atom_frac 0.3463490000000000 0.6427130000000000 0.6813630000000001 H
  atom_frac 0.5795080000000000 0.8473920000000000 0.6608450000000000 H
  atom_frac 0.0695430000000000 0.7068200000000000 0.6916560000000000 H
  atom_frac 0.5679110000000001 0.2064490000000000 0.6775690000000000 H
  atom_frac 0.9041040000000000 0.5729100000000000 0.6642570000000000 H
  atom_frac 0.7455650000000001 0.9818510000000000 0.6951240000000000 H
  atom_frac 0.2431390000000000 0.4808520000000000 0.6741910000000000 H
  atom_frac 0.2538320000000000 0.2908170000000000 0.7014430000000000 H
  atom_frac 0.3068340000000000 0.9136480000000000 0.7120840000000001 H
  atom_frac 0.0845300000000000 0.3496060000000000 0.7083240000000000 H
  atom_frac 0.4084980000000000 0.0745550000000000 0.7048560000000000 H
  atom_frac 0.7564850000000000 0.7913940000000000 0.7292459999999999 H
  atom_frac 0.9070330000000000 0.7680830000000000 0.7600789999999998 H
  atom_frac 0.4042890000000000 0.2673160000000000 0.7322770000000000 H
  atom_frac 0.8079140000000001 0.4136530000000000 0.7186169999999998 H
  atom_frac 0.8538789999999999 0.1452020000000000 0.7494279999999999 H
  atom_frac 0.3531300000000000 0.6452070000000000 0.7429059999999998 H
  atom_frac 0.5862900000000000 0.8498860000000000 0.7223879999999999 H
  atom_frac 0.0763250000000000 0.7093140000000000 0.7531990000000001 H
  atom_frac 0.5746920000000000 0.2089430000000000 0.7391120000000000 H
  atom_frac 0.9108860000000000 0.5754040000000000 0.7258000000000000 H
  atom_frac 0.7523470000000000 0.9843450000000000 0.7566670000000000 H
  atom_frac 0.2499200000000000 0.4833470000000000 0.7357340000000000 H
  atom_frac 0.2606130000000000 0.2933109999999999 0.7629869999999999 H
  atom_frac 0.3136160000000000 0.9161420000000000 0.7736270000000000 H
  atom_frac 0.0913110000000000 0.3521000000000000 0.7698670000000000 H
  atom_frac 0.4152790000000001 0.0770490000000000 0.7663990000000002 H
  atom_frac 0.5509510000000000 0.7262130000000000 0.2342410000000000 C
  atom_frac 0.0037260000000000 0.7933220000000000 0.2650520000000000 C
  atom_frac 0.5014080000000000 0.2926240000000000 0.2426590000000000 C
  atom_frac 0.7207060000000000 0.4534080000000000 0.2316590000000000 C
  atom_frac 0.8337010000000000 0.0661570000000000 0.2624700000000000 C
  atom_frac 0.3316750000000001 0.5654600000000000 0.2452630000000000 C
  atom_frac 0.0554070000000000 0.2281800000000000 0.2734140000000000 C
  atom_frac 0.2253910000000000 0.9553350000000000 0.2759840000000000 C
  atom_frac 0.5577309999999999 0.7287069999999999 0.2957730000000000 C
  atom_frac 0.0105060000000000 0.7958150000000001 0.3265840000000000 C
  atom_frac 0.5081890000000000 0.2951180000000000 0.3041910000000000 C
  atom_frac 0.7274870000000000 0.4559020000000000 0.2931910000000000 C
  atom_frac 0.8404820000000000 0.0686510000000000 0.3240020000000000 C
  atom_frac 0.3384560000000000 0.5679530000000000 0.3067950000000000 C
  atom_frac 0.0621870000000000 0.2306740000000000 0.3349460000000000 C
  atom_frac 0.2321710000000000 0.9578280000000000 0.3375160000000000 C
  atom_frac 0.5645120000000000 0.7312010000000001 0.3573160000000000 C
  atom_frac 0.0172870000000000 0.7983090000000000 0.3881270000000000 C
  atom_frac 0.5149700000000000 0.2976120000000000 0.3657340000000000 C
  atom_frac 0.7342680000000000 0.4583960000000000 0.3547340000000000 C
  atom_frac 0.8472630000000000 0.0711450000000000 0.3855450000000000 C
  atom_frac 0.3452370000000000 0.5704470000000000 0.3683380000000001 C
  atom_frac 0.0689690000000000 0.2331680000000000 0.3964890000000000 C
  atom_frac 0.2389520000000000 0.9603220000000000 0.3990590000000000 C
  atom_frac 0.5712930000000001 0.7336940000000000 0.4188480000000001 C
  atom_frac 0.0240680000000000 0.8008029999999999 0.4496590000000000 C
  atom_frac 0.5217500000000000 0.3001060000000000 0.4272660000000000 C
  atom_frac 0.7410480000000000 0.4608900000000000 0.4162660000000000 C
  atom_frac 0.8540430000000000 0.0736380000000000 0.4470770000000001 C
  atom_frac 0.3520170000000000 0.5729410000000000 0.4298699999999999 C
  atom_frac 0.0757490000000000 0.2356620000000000 0.4580210000000000 C
  atom_frac 0.2457320000000000 0.9628160000000000 0.4605910000000000 C
  atom_frac 0.5780740000000000 0.7361880000000000 0.4803910000000000 C
  atom_frac 0.0308490000000000 0.8032970000000001 0.5112020000000000 C
  atom_frac 0.5285320000000000 0.3025999999999999 0.4888090000000000 C
  atom_frac 0.7478300000000000 0.4633840000000000 0.4778089999999999 C
  atom_frac 0.8608250000000000 0.0761320000000000 0.5086200000000000 C
  atom_frac 0.3587990000000000 0.5754350000000000 0.4914130000000000 C
  atom_frac 0.0825300000000000 0.2381560000000000 0.5195640000000000 C
  atom_frac 0.2525140000000000 0.9653100000000000 0.5221340000000000 C
  atom_frac 0.5848540000000000 0.7386819999999999 0.5419230000000000 C
  atom_frac 0.0376290000000000 0.8057910000000000 0.5727340000000000 C
  atom_frac 0.5353120000000000 0.3050930000000000 0.5503410000000000 C
  atom_frac 0.7546100000000000 0.4658780000000000 0.5393410000000000 C
  atom_frac 0.8676050000000001 0.0786260000000000 0.5701520000000000 C
  atom_frac 0.3655790000000000 0.5779290000000000 0.5529450000000000 C
  atom_frac 0.0893110000000000 0.2406500000000000 0.5810959999999999 C
  atom_frac 0.2592940000000000 0.9678040000000000 0.5836660000000000 C
  atom_frac 0.5916360000000001 0.7411759999999999 0.6034659999999999 C
  atom_frac 0.0444110000000000 0.8082850000000000 0.6342770000000000 C
  atom_frac 0.5420929999999999 0.3075869999999999 0.6118840000000000 C
  atom_frac 0.7613910000000000 0.4683720000000000 0.6008840000000000 C
  atom_frac 0.8743860000000000 0.0811200000000000 0.6316950000000000 C
  atom_frac 0.3723600000000001 0.5804230000000000 0.6144880000000000 C
  atom_frac 0.0960920000000000 0.2431440000000000 0.6426390000000000 C
  atom_frac 0.2660750000000000 0.9702980000000000 0.6452090000000000 C
  atom_frac 0.5984159999999999 0.7436700000000001 0.6649980000000000 C
  atom_frac 0.0511910000000000 0.8107790000000000 0.6958090000000000 C
  atom_frac 0.5488730000000002 0.3100810000000001 0.6734160000000000 C
  atom_frac 0.7681709999999999 0.4708650000000000 0.6624160000000000 C
  atom_frac 0.8811660000000000 0.0836140000000000 0.6932270000000000 C
  atom_frac 0.3791400000000000 0.5829170000000000 0.6760200000000000 C
  atom_frac 0.1028720000000000 0.2456370000000000 0.7041710000000000 C
  atom_frac 0.2728550000000000 0.9727920000000000 0.7067410000000000 C
  atom_frac 0.6051970000000000 0.7461640000000000 0.7265410000000000 C
  atom_frac 0.0579720000000000 0.8132730000000000 0.7573520000000001 C
  atom_frac 0.5556550000000000 0.3125750000000000 0.7349590000000000 C
  atom_frac 0.7749530000000000 0.4733589999999999 0.7239600000000002 C
  atom_frac 0.8879479999999998 0.0861080000000000 0.7547700000000002 C
  atom_frac 0.3859220000000000 0.5854110000000000 0.7375630000000000 C
  atom_frac 0.1096540000000000 0.2481320000000000 0.7657140000000000 C
  atom_frac 0.2796370000000000 0.9752859999999999 0.7682839999999999 C
  atom_frac 0.5517919999999999 0.5474640000000000 0.2308060000000000 N
  atom_frac 0.0022650000000000 0.9717810000000000 0.2615950000000000 N
  atom_frac 0.5006380000000000 0.4714240000000000 0.2461050000000000 N
  atom_frac 0.3843390000000000 0.7166630000000000 0.2396740000000000 N
  atom_frac 0.6679210000000000 0.3021040000000000 0.2372380000000000 N
  atom_frac 0.8879120000000000 0.2181420000000000 0.2680150000000000 N
  atom_frac 0.3940510000000000 0.4732210000000000 0.2258000000000000 N
  atom_frac 0.1594910000000000 0.0459580000000000 0.2565660000000000 N
  atom_frac 0.6583700000000000 0.5456370000000000 0.2511110000000000 N
  atom_frac 0.2267700000000000 0.8074270000000000 0.2380460000000000 N
  atom_frac 0.3281990000000000 0.7120240000000000 0.2688010000000000 N
  atom_frac 0.8255100000000000 0.2113600000000000 0.2388650000000000 N
  atom_frac 0.0568280000000000 0.0497110000000000 0.2768710000000000 N
  atom_frac 0.1712500000000000 0.8034000000000000 0.2704400000000000 N
  atom_frac 0.8995710000000000 0.9755239999999999 0.2818880000000000 N
  atom_frac 0.7309430000000000 0.3095080000000000 0.2696540000000000 N
  atom_frac 0.5585730000000000 0.5499570000000000 0.2923380000000000 N
  atom_frac 0.0090450000000000 0.9742749999999999 0.3231270000000000 N
  atom_frac 0.5074180000000000 0.4739170000000000 0.3076370000000000 N
  atom_frac 0.3911200000000000 0.7191570000000000 0.3012050000000000 N
  atom_frac 0.6747010000000000 0.3045980000000000 0.2987700000000000 N
  atom_frac 0.8946930000000000 0.2206350000000000 0.3295470000000000 N
  atom_frac 0.4008310000000000 0.4757150000000000 0.2873320000000000 N
  atom_frac 0.1662710000000000 0.0484510000000000 0.3180980000000000 N
  atom_frac 0.6651500000000000 0.5481300000000000 0.3126430000000000 N
  atom_frac 0.2335500000000000 0.8099210000000000 0.2995780000000000 N
  atom_frac 0.3349790000000000 0.7145170000000000 0.3303330000000000 N
  atom_frac 0.8322909999999999 0.2138540000000000 0.3003970000000000 N
  atom_frac 0.0636080000000000 0.0522040000000000 0.3384030000000000 N
  atom_frac 0.1780300000000000 0.8058940000000000 0.3319710000000000 N
  atom_frac 0.9063510000000000 0.9780180000000001 0.3434200000000000 N
  atom_frac 0.7377230000000000 0.3120020000000000 0.3311860000000000 N
  atom_frac 0.5653540000000000 0.5524520000000001 0.3538810000000000 N
  atom_frac 0.0158270000000000 0.9767690000000001 0.3846700000000000 N
  atom_frac 0.5142000000000000 0.4764120000000000 0.3691800000000001 N
  atom_frac 0.3979009999999999 0.7216510000000000 0.3627490000000000 N
  atom_frac 0.6814829999999999 0.3070920000000000 0.3603129999999999 N
  atom_frac 0.9014740000000000 0.2231290000000000 0.3910900000000000 N
  atom_frac 0.4076120000000000 0.4782090000000000 0.3488750000000000 N
  atom_frac 0.1730520000000000 0.0509450000000000 0.3796410000000001 N
  atom_frac 0.6719309999999999 0.5506240000000000 0.3741860000000000 N
  atom_frac 0.2403320000000000 0.8124150000000000 0.3611210000000000 N
  atom_frac 0.3417610000000000 0.7170110000000000 0.3918760000000000 N
  atom_frac 0.8390720000000000 0.2163480000000000 0.3619400000000000 N
  atom_frac 0.0703900000000000 0.0546980000000000 0.3999460000000000 N
  atom_frac 0.1848110000000000 0.8083880000000000 0.3935149999999999 N
  atom_frac 0.9131330000000000 0.9805120000000001 0.4049630000000001 N
  atom_frac 0.7445050000000000 0.3144960000000000 0.3927290000000000 N
  atom_frac 0.5721340000000000 0.5549450000000000 0.4154130000000000 N
  atom_frac 0.0226070000000000 0.9792630000000000 0.4462020000000000 N
  atom_frac 0.5209800000000000 0.4789050000000000 0.4307119999999999 N
  atom_frac 0.4046810000000000 0.7241450000000000 0.4242810000000000 N
  atom_frac 0.6882630000000001 0.3095859999999999 0.4218450000000000 N
  atom_frac 0.9082540000000000 0.2256230000000000 0.4526220000000000 N
  atom_frac 0.4143930000000000 0.4807020000000000 0.4104070000000000 N
  atom_frac 0.1798330000000000 0.0534390000000000 0.4411730000000000 N
  atom_frac 0.6787119999999999 0.5531180000000000 0.4357180000000000 N
  atom_frac 0.2471120000000000 0.8149090000000000 0.4226530000000001 N
  atom_frac 0.3485410000000000 0.7195050000000000 0.4534080000000000 N
  atom_frac 0.8458520000000000 0.2188420000000000 0.4234720000000000 N
  atom_frac 0.0771700000000000 0.0571920000000000 0.4614780000000001 N
  atom_frac 0.1915910000000000 0.8108810000000000 0.4550460000000000 N
  atom_frac 0.9199130000000000 0.9830050000000000 0.4664950000000000 N
  atom_frac 0.7512850000000000 0.3169900000000000 0.4542610000000000 N
  atom_frac 0.5789160000000000 0.5574389999999999 0.4769560000000000 N
  atom_frac 0.0293880000000000 0.9817570000000000 0.5077450000000000 N
  atom_frac 0.5277610000000000 0.4813990000000000 0.4922550000000000 N
  atom_frac 0.4114630000000000 0.7266390000000000 0.4858240000000000 N
  atom_frac 0.6950440000000000 0.3120800000000000 0.4833880000000000 N
  atom_frac 0.9150360000000000 0.2281170000000000 0.5141650000000000 N
  atom_frac 0.4211740000000000 0.4831960000000000 0.4719500000000000 N
  atom_frac 0.1866140000000000 0.0559330000000000 0.5027160000000001 N
  atom_frac 0.6854930000000000 0.5556120000000000 0.4972610000000001 N
  atom_frac 0.2538930000000000 0.8174030000000000 0.4841960000000000 N
  atom_frac 0.3553220000000000 0.7219989999999999 0.5149510000000000 N
  atom_frac 0.8526339999999999 0.2213360000000000 0.4850150000000000 N
  atom_frac 0.0839510000000000 0.0596860000000000 0.5230210000000000 N
  atom_frac 0.1983730000000000 0.8133749999999998 0.5165900000000000 N
  atom_frac 0.9266940000000001 0.9854990000000000 0.5280380000000000 N
  atom_frac 0.7580660000000000 0.3194839999999999 0.5158040000000000 N
  atom_frac 0.5856960000000000 0.5599330000000001 0.5384880000000000 N
  atom_frac 0.0361680000000000 0.9842510000000000 0.5692770000000000 N
  atom_frac 0.5345410000000000 0.4838930000000000 0.5537870000000000 N
  atom_frac 0.4182430000000000 0.7291320000000000 0.5473560000000000 N
  atom_frac 0.7018240000000001 0.3145740000000001 0.5449200000000000 N
  atom_frac 0.9218160000000001 0.2306110000000000 0.5756970000000000 N
  atom_frac 0.4279540000000000 0.4856900000000001 0.5334820000000000 N
  atom_frac 0.1933940000000000 0.0584270000000000 0.5642480000000000 N
  atom_frac 0.6922730000000000 0.5581060000000000 0.5587930000000000 N
  atom_frac 0.2606730000000000 0.8198960000000000 0.5457280000000000 N
  atom_frac 0.3621020000000000 0.7244930000000001 0.5764830000000000 N
  atom_frac 0.8594140000000000 0.2238300000000000 0.5465470000000000 N
  atom_frac 0.0907320000000000 0.0621800000000000 0.5845530000000000 N
  atom_frac 0.2051530000000000 0.8158690000000001 0.5781210000000000 N
  atom_frac 0.9334740000000000 0.9879930000000000 0.5895700000000000 N
  atom_frac 0.7648460000000000 0.3219770000000000 0.5773360000000000 N
  atom_frac 0.5924770000000000 0.5624270000000000 0.6000310000000000 N
  atom_frac 0.0429500000000000 0.9867450000000000 0.6308200000000000 N
  atom_frac 0.5413230000000000 0.4863870000000000 0.6153300000000000 N
  atom_frac 0.4250240000000000 0.7316260000000000 0.6088990000000000 N
  atom_frac 0.7086059999999998 0.3170680000000000 0.6064630000000000 N
  atom_frac 0.9285970000000000 0.2331050000000000 0.6372400000000000 N
  atom_frac 0.4347350000000000 0.4881840000000000 0.5950250000000000 N
  atom_frac 0.2001760000000000 0.0609210000000000 0.6257910000000000 N
  atom_frac 0.6990540000000001 0.5606000000000000 0.6203360000000000 N
  atom_frac 0.2674550000000000 0.8223900000000000 0.6072710000000000 N
  atom_frac 0.3688840000000000 0.7269870000000000 0.6380260000000000 N
  atom_frac 0.8661950000000000 0.2263240000000000 0.6080910000000000 N
  atom_frac 0.0975130000000000 0.0646740000000000 0.6460960000000000 N
  atom_frac 0.2119340000000000 0.8183630000000000 0.6396650000000000 N
  atom_frac 0.9402560000000000 0.9904870000000000 0.6511130000000001 N
  atom_frac 0.7716280000000000 0.3244710000000000 0.6388790000000000 N
  atom_frac 0.5992570000000000 0.5649210000000000 0.6615630000000000 N
  atom_frac 0.0497300000000000 0.9892380000000000 0.6923520000000000 N
  atom_frac 0.5481030000000000 0.4888810000000000 0.6768620000000000 N
  atom_frac 0.4318040000000000 0.7341200000000000 0.6704310000000000 N
  atom_frac 0.7153860000000000 0.3195610000000000 0.6679950000000000 N
  atom_frac 0.9353770000000000 0.2355990000000000 0.6987719999999999 N
  atom_frac 0.4415160000000000 0.4906780000000000 0.6565569999999999 N
  atom_frac 0.2069560000000000 0.0634150000000000 0.6873230000000000 N
  atom_frac 0.7058350000000000 0.5630940000000000 0.6818680000000000 N
  atom_frac 0.2742350000000000 0.8248840000000000 0.6688030000000000 N
  atom_frac 0.3756640000000000 0.7294800000000000 0.6995580000000000 N
  atom_frac 0.8729749999999999 0.2288170000000000 0.6696220000000001 N
  atom_frac 0.1042930000000000 0.0671680000000000 0.7076280000000000 N
  atom_frac 0.2187140000000000 0.8208569999999999 0.7011970000000000 N
  atom_frac 0.9470360000000000 0.9929810000000000 0.7126450000000000 N
  atom_frac 0.7784080000000000 0.3269650000000000 0.7004110000000000 N
  atom_frac 0.6060390000000000 0.5674150000000000 0.7231060000000000 N
  atom_frac 0.0565110000000000 0.9917330000000000 0.7538950000000000 N
  atom_frac 0.5548840000000000 0.4913750000000000 0.7384050000000000 N
  atom_frac 0.4385860000000000 0.7366140000000000 0.7319740000000000 N
  atom_frac 0.7221670000000000 0.3220550000000000 0.7295380000000000 N
  atom_frac 0.9421589999999999 0.2380930000000000 0.7603150000000000 N
  atom_frac 0.4482970000000000 0.4931720000000000 0.7180999999999998 N
  atom_frac 0.2137370000000000 0.0659090000000000 0.7488660000000000 N
  atom_frac 0.7126160000000000 0.5655880000000000 0.7434110000000002 N
  atom_frac 0.2810160000000000 0.8273779999999999 0.7303459999999999 N
  atom_frac 0.3824450000000000 0.7319750000000000 0.7611010000000001 N
  atom_frac 0.8797570000000000 0.2313110000000000 0.7311660000000001 N
  atom_frac 0.1110750000000000 0.0696620000000000 0.7691710000000002 N
  atom_frac 0.2254960000000000 0.8233510000000002 0.7627399999999999 N
  atom_frac 0.9538170000000000 0.9954750000000000 0.7741880000000000 N
  atom_frac 0.7851890000000001 0.3294590000000000 0.7619540000000000 N
  atom_frac 0.2624250000000000 0.5663610000000000 0.2245660000000000 O
  atom_frac 0.2913050000000000 0.9530080000000000 0.2553320000000000 O
  atom_frac 0.7899850000000000 0.4524860000000000 0.2523350000000000 O
  atom_frac 0.3972810000000001 0.3194280000000000 0.2232640000000000 O
  atom_frac 0.1556400000000000 0.1995140000000000 0.2540180000000000 O
  atom_frac 0.6551709999999999 0.6994300000000000 0.2536590000000000 O
  atom_frac 0.2624230000000000 0.9362940000000000 0.2335340000000000 O
  atom_frac 0.2914860000000000 0.5826020000000000 0.2643220000000000 O
  atom_frac 0.7898060000000000 0.0824430000000000 0.2433660000000000 O
  atom_frac 0.0621050000000000 0.7541490000000000 0.2415370000000000 O
  atom_frac 0.9902069999999999 0.2646690000000000 0.2353860000000000 O
  atom_frac 0.5656930000000000 0.2561780000000000 0.2662080000000000 O
  atom_frac 0.7677570000000000 0.0684840000000000 0.2831230000000000 O
  atom_frac 0.9033620000000000 0.8219470000000000 0.2844360000000000 O
  atom_frac 0.7676780000000000 0.4389400000000000 0.2741440000000000 O
  atom_frac 0.4934390000000000 0.7653329999999999 0.2722470000000000 O
  atom_frac 0.2692050000000000 0.5688540000000000 0.2860980000000000 O
  atom_frac 0.2980850000000000 0.9555010000000000 0.3168630000000000 O
  atom_frac 0.7967649999999999 0.4549800000000000 0.3138670000000000 O
  atom_frac 0.4040610000000000 0.3219220000000000 0.2847950000000000 O
  atom_frac 0.1624200000000000 0.2020080000000000 0.3155500000000000 O
  atom_frac 0.6619510000000000 0.7019240000000000 0.3151910000000000 O
  atom_frac 0.2692030000000000 0.9387880000000000 0.2950660000000000 O
  atom_frac 0.2982660000000000 0.5850959999999999 0.3258540000000000 O
  atom_frac 0.7965869999999999 0.0849360000000000 0.3048980000000000 O
  atom_frac 0.0688850000000000 0.7566420000000000 0.3030690000000000 O
  atom_frac 0.9969870000000001 0.2671630000000000 0.2969180000000000 O
  atom_frac 0.5724730000000000 0.2586720000000000 0.3277400000000000 O
  atom_frac 0.7745370000000000 0.0709780000000000 0.3446550000000000 O
  atom_frac 0.9101420000000001 0.8244410000000000 0.3459680000000000 O
  atom_frac 0.7744579999999999 0.4414340000000000 0.3356750000000000 O
  atom_frac 0.5002190000000000 0.7678270000000001 0.3337790000000000 O
  atom_frac 0.2759860000000000 0.5713490000000000 0.3476410000000000 O
  atom_frac 0.3048660000000000 0.9579950000000000 0.3784070000000000 O
  atom_frac 0.8035460000000000 0.4574740000000000 0.3754100000000000 O
  atom_frac 0.4108430000000000 0.3244160000000000 0.3463390000000000 O
  atom_frac 0.1692020000000000 0.2045020000000000 0.3770930000000000 O
  atom_frac 0.6687320000000001 0.7044180000000000 0.3767340000000001 O
  atom_frac 0.2759850000000000 0.9412820000000000 0.3566090000000000 O
  atom_frac 0.3050470000000000 0.5875899999999999 0.3873970000000000 O
  atom_frac 0.8033680000000000 0.0874310000000000 0.3664410000000000 O
  atom_frac 0.0756660000000000 0.7591360000000000 0.3646120000000000 O
  atom_frac 0.0037690000000000 0.2696570000000000 0.3584610000000000 O
  atom_frac 0.5792550000000000 0.2611660000000000 0.3892830000000000 O
  atom_frac 0.7813190000000000 0.0734720000000000 0.4061980000000000 O
  atom_frac 0.9169230000000000 0.8269350000000000 0.4075110000000000 O
  atom_frac 0.7812390000000000 0.4439280000000000 0.3972190000000000 O
  atom_frac 0.5070000000000000 0.7703210000000000 0.3953220000000000 O
  atom_frac 0.2827660000000000 0.5738420000000000 0.4091730000000000 O
  atom_frac 0.3116470000000000 0.9604890000000000 0.4399380000000000 O
  atom_frac 0.8103260000000000 0.4599680000000000 0.4369420000000000 O
  atom_frac 0.4176230000000000 0.3269090000000000 0.4078710000000000 O
  atom_frac 0.1759820000000000 0.2069960000000000 0.4386250000000000 O
  atom_frac 0.6755120000000000 0.7069110000000000 0.4382660000000000 O
  atom_frac 0.2827650000000000 0.9437759999999999 0.4181410000000000 O
  atom_frac 0.3118270000000000 0.5900830000000000 0.4489290000000000 O
  atom_frac 0.8101480000000000 0.0899240000000000 0.4279730000000000 O
  atom_frac 0.0824470000000000 0.7616300000000000 0.4261440000000000 O
  atom_frac 0.0105490000000000 0.2721510000000000 0.4199930000000000 O
  atom_frac 0.5860350000000000 0.2636600000000000 0.4508150000000000 O
  atom_frac 0.7880990000000000 0.0759650000000000 0.4677300000000000 O
  atom_frac 0.9237040000000000 0.8294290000000000 0.4690430000000000 O
  atom_frac 0.7880190000000000 0.4464210000000000 0.4587510000000000 O
  atom_frac 0.5137800000000000 0.7728150000000000 0.4568540000000000 O
  atom_frac 0.2895480000000000 0.5763360000000000 0.4707160000000001 O
  atom_frac 0.3184280000000000 0.9629830000000000 0.5014820000000000 O
  atom_frac 0.8171079999999999 0.4624620000000000 0.4984850000000001 O
  atom_frac 0.4244040000000000 0.3294039999999999 0.4694140000000001 O
  atom_frac 0.1827630000000000 0.2094900000000000 0.5001679999999999 O
  atom_frac 0.6822940000000000 0.7094050000000000 0.4998090000000000 O
  atom_frac 0.2895460000000000 0.9462699999999999 0.4796839999999999 O
  atom_frac 0.3186090000000000 0.5925780000000000 0.5104720000000000 O
  atom_frac 0.8169300000000000 0.0924180000000000 0.4895160000000001 O
  atom_frac 0.0892280000000000 0.7641239999999999 0.4876869999999999 O
  atom_frac 0.0173300000000000 0.2746450000000000 0.4815360000000000 O
  atom_frac 0.5928160000000000 0.2661540000000000 0.5123580000000000 O
  atom_frac 0.7948800000000000 0.0784590000000000 0.5292730000000000 O
  atom_frac 0.9304849999999999 0.8319230000000000 0.5305860000000000 O
  atom_frac 0.7948009999999999 0.4489160000000000 0.5202940000000000 O
  atom_frac 0.5205620000000000 0.7753090000000000 0.5183970000000000 O
  atom_frac 0.2963280000000000 0.5788300000000000 0.5322480000000001 O
  atom_frac 0.3252080000000000 0.9654770000000000 0.5630140000000000 O
  atom_frac 0.8238879999999998 0.4649550000000000 0.5600170000000000 O
  atom_frac 0.4311850000000000 0.3318970000000000 0.5309460000000000 O
  atom_frac 0.1895430000000000 0.2119840000000000 0.5617000000000000 O
  atom_frac 0.6890740000000000 0.7118989999999999 0.5613410000000000 O
  atom_frac 0.2963260000000000 0.9487630000000000 0.5412160000000000 O
  atom_frac 0.3253889999999999 0.5950710000000000 0.5720040000000000 O
  atom_frac 0.8237100000000001 0.0949120000000000 0.5510480000000000 O
  atom_frac 0.0960080000000000 0.7666180000000001 0.5492190000000000 O
  atom_frac 0.0241100000000000 0.2771390000000000 0.5430680000000000 O
  atom_frac 0.5995970000000000 0.2686480000000000 0.5738900000000000 O
  atom_frac 0.8016600000000002 0.0809530000000000 0.5908050000000000 O
  atom_frac 0.9372650000000000 0.8344160000000000 0.5921180000000000 O
  atom_frac 0.8015810000000000 0.4514090000000000 0.5818260000000000 O
  atom_frac 0.5273420000000000 0.7778020000000000 0.5799290000000000 O
  atom_frac 0.3031090000000000 0.5813240000000000 0.5937910000000000 O
  atom_frac 0.3319900000000000 0.9679710000000000 0.6245570000000000 O
  atom_frac 0.8306690000000000 0.4674500000000000 0.6215600000000000 O
  atom_frac 0.4379660000000000 0.3343909999999999 0.5924890000000000 O
  atom_frac 0.1963250000000000 0.2144780000000000 0.6232430000000000 O
  atom_frac 0.6958550000000000 0.7143929999999999 0.6228840000000000 O
  atom_frac 0.3031080000000000 0.9512580000000000 0.6027590000000000 O
  atom_frac 0.3321700000000000 0.5975650000000000 0.6335470000000000 O
  atom_frac 0.8304910000000000 0.0974060000000000 0.6125910000000000 O
  atom_frac 0.1027890000000000 0.7691120000000000 0.6107620000000000 O
  atom_frac 0.0308920000000000 0.2796330000000000 0.6046110000000000 O
  atom_frac 0.6063780000000000 0.2711420000000000 0.6354330000000000 O
  atom_frac 0.8084420000000000 0.0834470000000000 0.6523480000000000 O
  atom_frac 0.9440470000000000 0.8369100000000000 0.6536610000000000 O
  atom_frac 0.8083620000000000 0.4539030000000000 0.6433690000000000 O
  atom_frac 0.5341230000000000 0.7802960000000000 0.6414720000000000 O
  atom_frac 0.3098900000000000 0.5838179999999999 0.6553230000000000 O
  atom_frac 0.3387700000000000 0.9704650000000000 0.6860889999999999 O
  atom_frac 0.8374490000000000 0.4699430000000000 0.6830920000000000 O
  atom_frac 0.4447460000000000 0.3368850000000000 0.6540210000000000 O
  atom_frac 0.2031050000000000 0.2169710000000000 0.6847750000000000 O
  atom_frac 0.7026350000000000 0.7168870000000001 0.6844160000000000 O
  atom_frac 0.3098880000000000 0.9537510000000001 0.6642910000000000 O
  atom_frac 0.3389499999999999 0.6000590000000000 0.6950790000000000 O
  atom_frac 0.8372710000000000 0.0999000000000000 0.6741230000000000 O
  atom_frac 0.1095700000000000 0.7716060000000000 0.6722939999999999 O
  atom_frac 0.0376720000000000 0.2821260000000000 0.6661430000000000 O
  atom_frac 0.6131580000000000 0.2736350000000000 0.6969649999999999 O
  atom_frac 0.8152220000000000 0.0859410000000000 0.7138800000000000 O
  atom_frac 0.9508270000000000 0.8394040000000000 0.7151929999999999 O
  atom_frac 0.8151430000000001 0.4563970000000000 0.7049010000000000 O
  atom_frac 0.5409040000000001 0.7827900000000000 0.7030040000000000 O
  atom_frac 0.3166710000000000 0.5863120000000001 0.7168660000000000 O
  atom_frac 0.3455510000000000 0.9729590000000000 0.7476320000000001 O
  atom_frac 0.8442309999999998 0.4724370000000000 0.7446350000000002 O
  atom_frac 0.4515280000000000 0.3393790000000000 0.7155640000000000 O
  atom_frac 0.2098860000000000 0.2194660000000000 0.7463180000000001 O
  atom_frac 0.7094170000000000 0.7193810000000000 0.7459590000000000 O
  atom_frac 0.3166690000000000 0.9562450000000000 0.7258340000000000 O
  atom_frac 0.3457320000000000 0.6025530000000000 0.7566219999999999 O
  atom_frac 0.8440530000000001 0.1023940000000000 0.7356670000000000 O
  atom_frac 0.1163510000000000 0.7741000000000000 0.7338370000000000 O
  atom_frac 0.0444530000000000 0.2846200000000000 0.7276859999999999 O
  atom_frac 0.6199400000000000 0.2761300000000000 0.7585080000000000 O
  atom_frac 0.8220029999999999 0.0884350000000000 0.7754230000000001 O
  atom_frac 0.9576080000000000 0.8418980000000000 0.7767360000000000 O
  atom_frac 0.8219240000000000 0.4588910000000000 0.7664440000000000 O
  atom_frac 0.5476850000000000 0.7852840000000000 0.7645470000000000 O
  
  -----------------------------------------------------------------------
  Completed first pass over input file geometry.in .
  -----------------------------------------------------------------------
  

  Basic array size parameters:
  | Number of species                 :        4
  | Number of atoms                   :      504
  | Number of lattice vectors         :        3
  | Max. basis fn. angular momentum   :        2
  | Max. atomic/ionic basis occupied n:        2
  | Max. number of basis fn. types    :        2
  | Max. radial fns per species/type  :        3
  | Max. logarithmic grid size        :     1301
  | Max. radial integration grid size :       36
  | Max. angular integration grid size:      302
  | Max. angular grid division number :        8
  | Radial grid for Hartree potential :     1301
  | Number of spin channels           :        1

------------------------------------------------------------
          Reading file control.in.
------------------------------------------------------------
  XC: Using PBE gradient-corrected functionals.
  Spin treatment: No spin polarisation.
  Scalar relativistic treatment of kinetic energy: on-site free-atom approximation to ZORA.
  Charge =   0.000000E+00: Neutral system requested explicitly.
  Occupation type: Gaussian broadening, width =   0.100000E-01 eV.
  Using pulay charge density mixing.
  Pulay mixing - number of memorized iterations:    8
  Charge density mixing - mixing parameter:     0.0200
  Convergence accuracy of self-consistent charge density:  0.1000E-03
  Convergence accuracy of sum of eigenvalues:  0.1000E-01
  Convergence accuracy of total energy:  0.1000E-05
  Maximum number of s.-c. iterations  : 10000
  Kohn-Sham electronic structure solved by the ELSI library.
  Number of empty states per atom:        6
  Threshold for basis singularities:  0.1000E-04
  Found k-point grid:         4         4         1
  Using dipole correction.
 
  Reading configuration options for species H                   .
  | Found nuclear charge :   1.0000
  | Found atomic mass :    1.00794000000000      amu
  | Found l_max for Hartree potential  :   4
  | Found cutoff potl. onset [A], width [A], scale factor :    3.50000    1.50000    1.00000
  | Threshold for basis-dependent cutoff potential is   0.100000E-03
  | Found data for basic radial integration grid :    24 points, outermost radius =    5.000 A
  | Found multiplier for basic radial grid :   1
  | Found angular grid specification: user-specified.
  | Specified grid contains     5 separate shells.
  | Check grid settings after all constraints further below.
  | Found free-atom valence shell :  1 s   1.000
  | No ionic wave fns used. Skipping ion_occ.
  | Found hydrogenic basis function :  2 s   2.100
  | Found hydrogenic basis function :  2 p   3.500
  Species H                   : Missing cutoff potential type.
  Defaulting to exp(1/x)/(1-x)^2 type cutoff potential.
  Species H : No 'logarithmic' tag. Using default grid for free atom:
  | Default logarithmic grid data [bohr] : 0.1000E-03 0.1000E+03 0.1012E+01
  Species H : On-site basis accuracy parameter (for Gram-Schmidt orthonormalisation) not specified.
  Using default value basis_acc =  0.1000000E-03.
  Species H                   : Using default innermost maximum threshold i_radial=  2 for radial functions.
  Species H                   : Default cutoff onset for free atom density etc. : 0.35000000E+01 AA.
  Species H                   : Basic radial grid will be enhanced according to radial_multiplier =   1, to contain    24 grid points.
 
  Reading configuration options for species C                   .
  | Found nuclear charge :   6.0000
  | Found atomic mass :    12.0107000000000      amu
  | Found l_max for Hartree potential  :   4
  | Found cutoff potl. onset [A], width [A], scale factor :    3.50000    1.50000    1.00000
  | Threshold for basis-dependent cutoff potential is   0.100000E-03
  | Found data for basic radial integration grid :    34 points, outermost radius =    5.000 A
  | Found multiplier for basic radial grid :   1
  | Found angular grid specification: user-specified.
  | Specified grid contains     5 separate shells.
  | Check grid settings after all constraints further below.
  | Found free-atom valence shell :  2 s   2.000
  | Found free-atom valence shell :  2 p   2.000
  | No ionic wave fns used. Skipping ion_occ.
  | No ionic wave fns used. Skipping ion_occ.
  | Found hydrogenic basis function :  2 p   1.700
  | Found hydrogenic basis function :  3 d   6.000
  | Found hydrogenic basis function :  2 s   4.900
  Species C                   : Missing cutoff potential type.
  Defaulting to exp(1/x)/(1-x)^2 type cutoff potential.
  Species C : No 'logarithmic' tag. Using default grid for free atom:
  | Default logarithmic grid data [bohr] : 0.1000E-03 0.1000E+03 0.1012E+01
  Species C : On-site basis accuracy parameter (for Gram-Schmidt orthonormalisation) not specified.
  Using default value basis_acc =  0.1000000E-03.
  Species C                   : Using default innermost maximum threshold i_radial=  2 for radial functions.
  Species C                   : Default cutoff onset for free atom density etc. : 0.35000000E+01 AA.
  Species C                   : Basic radial grid will be enhanced according to radial_multiplier =   1, to contain    34 grid points.
 
  Reading configuration options for species N                   .
  | Found nuclear charge :   7.0000
  | Found atomic mass :    14.0067000000000      amu
  | Found l_max for Hartree potential  :   4
  | Found cutoff potl. onset [A], width [A], scale factor :    3.50000    1.50000    1.00000
  | Threshold for basis-dependent cutoff potential is   0.100000E-03
  | Found data for basic radial integration grid :    35 points, outermost radius =    5.000 A
  | Found multiplier for basic radial grid :   1
  | Found angular grid specification: user-specified.
  | Specified grid contains     5 separate shells.
  | Check grid settings after all constraints further below.
  | Found free-atom valence shell :  2 s   2.000
  | Found free-atom valence shell :  2 p   3.000
  | No ionic wave fns used. Skipping ion_occ.
  | No ionic wave fns used. Skipping ion_occ.
  | Found hydrogenic basis function :  2 p   1.800
  | Found hydrogenic basis function :  3 d   6.800
  | Found hydrogenic basis function :  3 s   5.800
  Species N                   : Missing cutoff potential type.
  Defaulting to exp(1/x)/(1-x)^2 type cutoff potential.
  Species N : No 'logarithmic' tag. Using default grid for free atom:
  | Default logarithmic grid data [bohr] : 0.1000E-03 0.1000E+03 0.1012E+01
  Species N : On-site basis accuracy parameter (for Gram-Schmidt orthonormalisation) not specified.
  Using default value basis_acc =  0.1000000E-03.
  Species N                   : Using default innermost maximum threshold i_radial=  2 for radial functions.
  Species N                   : Default cutoff onset for free atom density etc. : 0.35000000E+01 AA.
  Species N                   : Basic radial grid will be enhanced according to radial_multiplier =   1, to contain    35 grid points.
 
  Reading configuration options for species O                   .
  | Found nuclear charge :   8.0000
  | Found atomic mass :    15.9994000000000      amu
  | Found l_max for Hartree potential  :   4
  | Found cutoff potl. onset [A], width [A], scale factor :    3.50000    1.50000    1.00000
  | Threshold for basis-dependent cutoff potential is   0.100000E-03
  | Found data for basic radial integration grid :    36 points, outermost radius =    5.000 A
  | Found multiplier for basic radial grid :   1
  | Found angular grid specification: user-specified.
  | Specified grid contains     5 separate shells.
  | Check grid settings after all constraints further below.
  | Found free-atom valence shell :  2 s   2.000
  | Found free-atom valence shell :  2 p   4.000
  | No ionic wave fns used. Skipping ion_occ.
  | No ionic wave fns used. Skipping ion_occ.
  | Found hydrogenic basis function :  2 p   1.800
  | Found hydrogenic basis function :  3 d   7.600
  | Found hydrogenic basis function :  3 s   6.400
  Species O                   : Missing cutoff potential type.
  Defaulting to exp(1/x)/(1-x)^2 type cutoff potential.
  Species O : No 'logarithmic' tag. Using default grid for free atom:
  | Default logarithmic grid data [bohr] : 0.1000E-03 0.1000E+03 0.1012E+01
  Species O : On-site basis accuracy parameter (for Gram-Schmidt orthonormalisation) not specified.
  Using default value basis_acc =  0.1000000E-03.
  Species O                   : Using default innermost maximum threshold i_radial=  2 for radial functions.
  Species O                   : Default cutoff onset for free atom density etc. : 0.35000000E+01 AA.
  Species O                   : Basic radial grid will be enhanced according to radial_multiplier =   1, to contain    36 grid points.
 
  Finished reading input file 'control.in'. Consistency checks are next.
 
  MPI_IN_PLACE appears to work with this MPI implementation.
  | Keeping use_mpi_in_place .true. (see manual).
  Target number of points in a grid batch is not set. Defaulting to  100
  Method for grid partitioning is not set. Defaulting to parallel hash+maxmin partitioning.
  Batch size limit is not set. Defaulting to    200
  By default, will store active basis functions for each batch.
  If in need of memory, prune_basis_once .false. can be used to disable this option.
  communication_type for Hartree potential was not specified.
  Defaulting to calc_hartree .
  Pulay mixer: Number of initial linear mixing iterations not set.
  Defaulting to    0 iterations.
  Work space size for distributed Hartree potential not set.
  Defaulting to   0.200000E+03 MB.
  Algorithm-dependent basis array size parameters:
  | n_max_pulay                         :        8
  Presetting      1001 iterations before the initial mixing cycle
  is restarted anyway using the sc_init_iter criterion / keyword.
  Presetting a factor      1.000 between actual scf density residual
  and density convergence criterion sc_accuracy_rho below which sc_init_iter
  takes no effect.
  Calculation of forces was not defined in control.in. No forces will be calculated.
  Geometry relaxation not requested: no relaxation will be performed.
  No accuracy limit for integral partition fn. given. Defaulting to  0.1000E-14.
  No threshold value for u(r) in integrations given. Defaulting to  0.1000E-05.
  No accuracy for occupation numbers given. Defaulting to  0.1000E-12.
  No threshold value for occupation numbers given. Defaulting to  0.0000E+00.
  No accuracy for fermi level given. Defaulting to  0.1000E-19.
  Maximum # of iterations to find E_F not set. Defaulting to  200.
  Maximum number of tasks per SMP nodenot specified.
  Presetting   512 tasks.
  Will not use alltoall communication since running on < 1024 CPUs.
  partition_type (choice of integration weights) for integrals was not specified.
  | Using a version of the partition function of Stratmann and coworkers ('stratmann_smoother').
  | At each grid point, the set of atoms used to build the partition table is smoothly restricted to
  | only those atoms whose free-atom density would be non-zero at that grid point.
  Partitioning for Hartree potential was not defined. Using partition_type for integrals.
  | Adjusted default value of keyword multip_moments_threshold to:       0.10000000E-11
  | This value may affect high angular momentum components of the Hartree potential in periodic systems.
  Angular momentum expansion for Kerker preconditioner not set explicitly.
  | Using default value of   0
  No explicit requirement for turning off preconditioner.
  | By default, it will be turned off when the charge convergence reaches
  | sc_accuracy_rho  =   0.100000E-03
  | sc_accuracy_eev  =   0.100000E-01
  | sc_accuracy_etot =   0.100000E-05
  No special mixing parameter while Kerker preconditioner is on.
  Using default: charge_mix_param =     0.0200.
  No q(lm)/r^(l+1) cutoff set for long-range Hartree potential.
  | Using default value of  0.100000E-09 .
  | Verify using the multipole_threshold keyword.
  Defaulting to new monopole extrapolation.
  Density update method: automatic selection selected.
  Using density matrix based charge density update.
  Using density matrix based charge density update.
  Using packed matrix style: index .
  Defaulting to use time-reversal symmetry for k-point grid.
  Using the following vdw_convergence_threshold for supercell sums
  over the Tkatchenko-Scheffler correction:  0.504000E-05 eV.
------------------------------------------------------------


------------------------------------------------------------
          Reading geometry description geometry.in.
------------------------------------------------------------
  Input structure read successfully.
  The structure contains      504 atoms,  and a total of       2736.000 electrons.

  Input geometry:
  | Unit cell:
  |        6.59576000        0.00000000        0.00000000
  |       -1.54504400        7.23284900        0.00000000
  |        0.00000000        0.00000000      179.16042500
  | Atomic structure:
  |       Atom                x [A]            y [A]            z [A]
  |    1: Species H             3.43988653        5.57973073       42.45134606
  |    2: Species H             4.46887493        5.41112579       47.97539945
  |    3: Species H             1.92660981        1.78915369       42.99438131
  |    4: Species H             4.36272633        2.84758712       40.54704990
  |    5: Species H             5.08067060        0.90591434       46.06698260
  |    6: Species H             1.00531910        4.52238223       44.89867747
  |    7: Species H             2.22694185        6.00279453       41.22266387
  |    8: Species H            -0.91947498        4.98605849       46.74277572
  |    9: Species H             3.14073595        1.36695060       44.21894282
  |   10: Species H             4.79198593        4.01750768       41.83395924
  |   11: Species H             3.11446889        6.97531618       47.36410408
  |   12: Species H             0.57465308        3.35166606       43.61373890
  |   13: Species H             0.93879398        1.97717160       48.49621880
  |   14: Species H             0.32608115        6.48201418       50.40266488
  |   15: Species H            -0.26871298        2.40238356       49.72902169
  |   16: Species H             2.29306810        0.41298121       49.10769333
  |   17: Species H             3.48075399        5.59776222       53.47544533
  |   18: Species H             4.50974744        5.42916451       58.99949872
  |   19: Species H             1.96747572        1.80719242       54.01848058
  |   20: Species H             4.40359379        2.86561861       51.57114918
  |   21: Species H             5.12153651        0.92395306       57.09108187
  |   22: Species H             1.04618501        4.54042096       55.92277674
  |   23: Species H             2.26780930        6.02082603       52.24676314
  |   24: Species H            -0.87860906        5.00409721       57.76687499
  |   25: Species H             3.18160187        1.38498932       55.24304209
  |   26: Species H             4.83285184        4.03554640       52.85805851
  |   27: Species H             3.15534295        6.99334767       58.38820335
  |   28: Species H             0.61551899        3.36970479       54.63783817
  |   29: Species H             0.97965989        1.99521033       59.52031807
  |   30: Species H             0.36694706        6.50005290       61.42676416
  |   31: Species H            -0.22784552        2.42041506       60.75312096
  |   32: Species H             2.33393401        0.43101994       60.13179260
  |   33: Species H             3.52163309        5.61580095       64.50151537
  |   34: Species H             4.55061995        5.44720324       70.02556875
  |   35: Species H             2.00834823        1.82523114       65.04455062
  |   36: Species H             4.44446476        2.88366457       62.59721921
  |   37: Species H             5.16240902        0.94199179       68.11715191
  |   38: Species H             1.08706412        4.55845969       66.94884677
  |   39: Species H             2.30868841        6.03886475       63.27283317
  |   40: Species H            -0.83772996        5.02213594       68.79294503
  |   41: Species H             3.22248097        1.40302805       66.26911212
  |   42: Species H             4.87373094        4.05358513       63.88412854
  |   43: Species H             3.19621391        7.01139363       69.41427338
  |   44: Species H             0.65639150        3.38774351       65.66390821
  |   45: Species H             1.02053240        2.01324905       70.54656727
  |   46: Species H             0.40782617        6.51809163       72.45283419
  |   47: Species H            -0.18696796        2.43846101       71.77919099
  |   48: Species H             2.37480652        0.44905866       71.15786264
  |   49: Species H             3.56249900        5.63383967       75.52561464
  |   50: Species H             4.59148586        5.46524196       81.04966802
  |   51: Species H             2.04922074        1.84326987       76.06864989
  |   52: Species H             4.48533221        2.90169606       73.62131848
  |   53: Species H             5.20327493        0.96003051       79.14125118
  |   54: Species H             1.12793003        4.57649841       77.97294605
  |   55: Species H             2.34955432        6.05690348       74.29693245
  |   56: Species H            -0.79686405        5.04017466       79.81704430
  |   57: Species H             3.26334688        1.42106677       77.29321139
  |   58: Species H             4.91459840        4.07161662       74.90822782
  |   59: Species H             3.23708137        7.02942512       80.43837265
  |   60: Species H             0.69726401        3.40578224       76.68800748
  |   61: Species H             1.06140645        2.03128055       81.57048738
  |   62: Species H             0.44869208        6.53613035       83.47693346
  |   63: Species H            -0.14610050        2.45649251       82.80329026
  |   64: Species H             2.41567243        0.46709739       82.18196191
  |   65: Species H             3.60337151        5.65187840       86.55168468
  |   66: Species H             4.63236496        5.48328069       92.07573806
  |   67: Species H             2.09009325        1.86130859       87.09471992
  |   68: Species H             4.52621132        2.91973479       84.64738852
  |   69: Species H             5.24415403        0.97806924       90.16750037
  |   70: Species H             1.16880254        4.59453714       88.99901608
  |   71: Species H             2.39042683        6.07494220       85.32300248
  |   72: Species H            -0.75599154        5.05821339       90.84311434
  |   73: Species H             3.30421939        1.43910550       88.31928143
  |   74: Species H             4.95547091        4.08965534       85.93429785
  |   75: Species H             3.27796047        7.04746385       91.46444269
  |   76: Species H             0.73813652        3.42382096       87.71407751
  |   77: Species H             1.10227896        2.04931927       92.59673658
  |   78: Species H             0.48956459        6.55416908       94.50300350
  |   79: Species H            -0.10522799        2.47453123       93.82936030
  |   80: Species H             2.45655154        0.48513611       93.20803195
  |   81: Species H             3.64423743        5.66991713       97.57578395
  |   82: Species H             4.67323242        5.50131218      103.09983733
  |   83: Species H             2.13095916        1.87934732       98.11881920
  |   84: Species H             4.56707723        2.93777351       95.67148779
  |   85: Species H             5.28501995        0.99610796      101.19142048
  |   86: Species H             1.20967000        4.61256863      100.02311535
  |   87: Species H             2.43129934        6.09298093       96.34710175
  |   88: Species H            -0.71511748        5.07624488      101.86721361
  |   89: Species H             3.34508531        1.45714423       99.34338070
  |   90: Species H             4.99634342        4.10769407       96.95839712
  |   91: Species H             3.31882639        7.06550257      102.48854196
  |   92: Species H             0.77900243        3.44185969       98.73817678
  |   93: Species H             1.14314487        2.06735800      103.62065669
  |   94: Species H             0.53043864        6.57220057      105.52710277
  |   95: Species H            -0.06436208        2.49256996      104.85345957
  |   96: Species H             2.49741900        0.50316761      104.23213122
  |   97: Species H             3.68511653        5.68795585      108.60185398
  |   98: Species H             4.71410493        5.51935091      114.12590737
  |   99: Species H             2.17183827        1.89738605      109.14488923
  |  100: Species H             4.60794974        2.95581224      106.69755783
  |  101: Species H             5.32589246        1.01414669      112.21766968
  |  102: Species H             1.25054910        4.63060735      111.04918539
  |  103: Species H             2.47217185        6.11101965      107.37317179
  |  104: Species H            -0.67424652        5.09429084      112.89328364
  |  105: Species H             3.38596441        1.47518295      110.36945074
  |  106: Species H             5.03721593        4.12573280      107.98446716
  |  107: Species H             3.35969889        7.08354130      113.51461200
  |  108: Species H             0.81988154        3.45989841      109.76424682
  |  109: Species H             1.18401738        2.08539672      114.64690588
  |  110: Species H             0.57131115        6.59023930      116.55317280
  |  111: Species H            -0.02348297        2.51060868      115.87952961
  |  112: Species H             2.53828996        0.52121356      115.25820125
  |  113: Species H             3.72598244        5.70599458      119.62595325
  |  114: Species H             4.75497084        5.53738963      125.15000664
  |  115: Species H             2.21270572        1.91541754      120.16898850
  |  116: Species H             4.64882225        2.97385096      117.72165710
  |  117: Species H             5.36676651        1.03217818      123.24158979
  |  118: Species H             1.29141502        4.64864608      122.07328466
  |  119: Species H             2.51303776        6.12905838      118.39727106
  |  120: Species H            -0.63337906        5.11232233      123.91738291
  |  121: Species H             3.42683187        1.49321444      121.39355001
  |  122: Species H             5.07808184        4.14377152      119.00856643
  |  123: Species H             3.40056481        7.10158002      124.53871127
  |  124: Species H             0.86074899        3.47792991      120.78834609
  |  125: Species H             1.22488989        2.10343545      125.67082599
  |  126: Species H             0.61217706        6.60827802      127.57727208
  |  127: Species H             0.01738294        2.52864741      126.90362888
  |  128: Species H             2.57916401        0.53924506      126.28230052
  |  129: Species H             3.76685495        5.72403330      130.65202329
  |  130: Species H             4.79584995        5.55542836      136.17607667
  |  131: Species H             2.25357823        1.93345626      131.19505854
  |  132: Species H             4.68969476        2.99188969      128.74772713
  |  133: Species H             5.40763747        1.05022414      134.26783899
  |  134: Species H             1.33228752        4.66668480      133.09935470
  |  135: Species H             2.55391687        6.14709711      129.42334109
  |  136: Species H            -0.59249996        5.13036106      134.94345295
  |  137: Species H             3.46770438        1.51125317      132.41962004
  |  138: Species H             5.11896095        4.16181025      130.03463647
  |  139: Species H             3.44144391        7.11961875      135.56478130
  |  140: Species H             0.90161996        3.49597587      131.81441613
  |  141: Species H             1.26576240        2.12147417      136.69707519
  |  142: Species H             0.65305617        6.62631675      138.60334211
  |  143: Species H             0.05825545        2.54668613      137.92969891
  |  144: Species H             2.62003652        0.55728378      137.30837056
  |  145: Species C             2.51190953        5.25258897       41.96671711
  |  146: Species C            -1.20114159        5.73797823       47.48682897
  |  147: Species C             2.85504987        2.11650521       43.47488957
  |  148: Species C             4.05306850        3.27943160       41.50412490
  |  149: Species C             5.39667623        0.47850359       47.02423675
  |  150: Species C             1.31398812        4.08988680       43.94142332
  |  151: Species C             0.01290313        1.65039148       48.98496844
  |  152: Species C             0.01059033        6.90979380       49.44541073
  |  153: Species C             2.55277544        5.27062770       52.99081638
  |  154: Species C            -1.16027414        5.75600973       58.51092824
  |  155: Species C             2.89592238        2.13454393       54.49898884
  |  156: Species C             4.09394101        3.29747032       52.52822417
  |  157: Species C             5.43754874        0.49654232       58.04833602
  |  158: Species C             1.35486217        4.10791829       54.96552259
  |  159: Species C             0.05376905        1.66843021       60.00906771
  |  160: Species C             0.05145779        6.92782529       60.46951000
  |  161: Species C             2.59364795        5.28866642       64.01688642
  |  162: Species C            -1.11940163        5.77404845       69.53699827
  |  163: Species C             2.93679489        2.15258266       65.52505888
  |  164: Species C             4.13481351        3.31550905       63.55429420
  |  165: Species C             5.47842125        0.51458104       69.07440606
  |  166: Species C             1.39573468        4.12595701       65.99159262
  |  167: Species C             0.09464815        1.68646894       71.03513775
  |  168: Species C             0.09233030        6.94586402       71.49558004
  |  169: Species C             2.63452201        5.30669791       75.04098569
  |  170: Species C            -1.07852912        5.79208718       80.56109755
  |  171: Species C             2.97766081        2.17062138       76.54915815
  |  172: Species C             4.17567943        3.33354778       74.57839347
  |  173: Species C             5.51928871        0.53261253       80.09850533
  |  174: Species C             1.43660059        4.14399574       77.01569189
  |  175: Species C             0.13551407        1.70450766       82.05923702
  |  176: Species C             0.13319621        6.96390274       82.51967931
  |  177: Species C             2.67539451        5.32473664       86.06705573
  |  178: Species C            -1.03765661        5.81012590       91.58716758
  |  179: Species C             3.01853991        2.18866011       87.57522818
  |  180: Species C             4.21655853        3.35158650       85.60446351
  |  181: Species C             5.56016781        0.55065126       91.12457536
  |  182: Species C             1.47747970        4.16203446       88.04176193
[...]
  |   Free atom volume        :     23.60491416
  |   Hirshfeld volume        :     21.65317143
  |   Hirshfeld dipole vector :     -0.00693933       0.03317452       0.01139898
  |   Hirshfeld dipole moment :      0.03575808
  |   Hirshfeld second moments:      0.01766034      -0.00013746      -0.01404591
  |                                 -0.00013746       0.06052128       0.01239648
  |                                 -0.01404591       0.01239648       0.04193919
  ----------------------------------------------------------------------
  | Atom   493: O
  |   Hirshfeld charge        :     -0.13997095
  |   Free atom volume        :     23.60491416
  |   Hirshfeld volume        :     21.63870921
  |   Hirshfeld dipole vector :      0.00732726      -0.03284647       0.01086180
  |   Hirshfeld dipole moment :      0.03536323
  |   Hirshfeld second moments:      0.01831391      -0.00020095       0.01413295
  |                                 -0.00020095       0.06091847      -0.01234065
  |                                  0.01413295      -0.01234065       0.04246611
  ----------------------------------------------------------------------
  | Atom   494: O
  |   Hirshfeld charge        :     -0.14117593
  |   Free atom volume        :     23.60491416
  |   Hirshfeld volume        :     21.65620612
  |   Hirshfeld dipole vector :      0.00697057      -0.03319613      -0.01137599
  |   Hirshfeld dipole moment :      0.03577688
  |   Hirshfeld second moments:      0.01740900      -0.00013983      -0.01399479
  |                                 -0.00013983       0.06042961       0.01253706
  |                                 -0.01399479       0.01253706       0.04181396
  ----------------------------------------------------------------------
  | Atom   495: O
  |   Hirshfeld charge        :     -0.15414102
  |   Free atom volume        :     23.60491416
  |   Hirshfeld volume        :     21.86259207
  |   Hirshfeld dipole vector :      0.02023480      -0.03379098       0.02440033
  |   Hirshfeld dipole moment :      0.04633199
  |   Hirshfeld second moments:     -0.00899915       0.00828875       0.00339537
  |                                  0.00828875       0.04897576      -0.00369496
  |                                  0.00339537      -0.00369496       0.05798792
  ----------------------------------------------------------------------
  | Atom   496: O
  |   Hirshfeld charge        :     -0.15434076
  |   Free atom volume        :     23.60491416
  |   Hirshfeld volume        :     21.83255483
  |   Hirshfeld dipole vector :     -0.01950887       0.03408209       0.02423166
  |   Hirshfeld dipole moment :      0.04614497
  |   Hirshfeld second moments:     -0.00888539       0.00820359      -0.00310523
  |                                  0.00820359       0.04937666       0.00351296
  |                                 -0.00310523       0.00351296       0.05929394
  ----------------------------------------------------------------------
  | Atom   497: O
  |   Hirshfeld charge        :     -0.15385690
  |   Free atom volume        :     23.60491416
  |   Hirshfeld volume        :     21.85779966
  |   Hirshfeld dipole vector :     -0.02016639       0.03382807      -0.02446189
  |   Hirshfeld dipole moment :      0.04636169
  |   Hirshfeld second moments:     -0.00874605       0.00825002       0.00338839
  |                                  0.00825002       0.04917310      -0.00350324
  |                                  0.00338839      -0.00350324       0.05813311
  ----------------------------------------------------------------------
  | Atom   498: O
  |   Hirshfeld charge        :     -0.16738290
  |   Free atom volume        :     23.60491416
  |   Hirshfeld volume        :     21.91802202
  |   Hirshfeld dipole vector :      0.04037599      -0.00482537      -0.03000188
  |   Hirshfeld dipole moment :      0.05053333
  |   Hirshfeld second moments:      0.04423605       0.02772537      -0.00885988
  |                                  0.02772537       0.01153592       0.01343503
  |                                 -0.00885988       0.01343503       0.03252644
  ----------------------------------------------------------------------
  | Atom   499: O
  |   Hirshfeld charge        :     -0.16711985
  |   Free atom volume        :     23.60491416
  |   Hirshfeld volume        :     21.91326937
  |   Hirshfeld dipole vector :     -0.04038093       0.00470631       0.02996168
  |   Hirshfeld dipole moment :      0.05050219
  |   Hirshfeld second moments:      0.04443711       0.02766743      -0.00874679
  |                                  0.02766743       0.01170124       0.01351374
  |                                 -0.00874679       0.01351374       0.03270582
  ----------------------------------------------------------------------
  | Atom   500: O
  |   Hirshfeld charge        :     -0.17043748
  |   Free atom volume        :     23.60491416
  |   Hirshfeld volume        :     21.90130523
  |   Hirshfeld dipole vector :      0.04116343      -0.00465349       0.03030214
  |   Hirshfeld dipole moment :      0.05132546
  |   Hirshfeld second moments:      0.04432855       0.02740959       0.00820238
  |                                  0.02740959       0.01062761      -0.01320521
  |                                  0.00820238      -0.01320521       0.03286887
  ----------------------------------------------------------------------
  | Atom   501: O
  |   Hirshfeld charge        :     -0.17888711
  |   Free atom volume        :     23.60491416
  |   Hirshfeld volume        :     22.30638659
  |   Hirshfeld dipole vector :      0.04743628      -0.01916209      -0.02798090
  |   Hirshfeld dipole moment :      0.05831224
  |   Hirshfeld second moments:      0.04351584      -0.01863656       0.01406574
  |                                 -0.01863656       0.00323677       0.02285195
  |                                  0.01406574       0.02285195       0.00168352
  ----------------------------------------------------------------------
  | Atom   502: O
  |   Hirshfeld charge        :     -0.16441282
  |   Free atom volume        :     23.60491416
  |   Hirshfeld volume        :     22.31245239
  |   Hirshfeld dipole vector :      0.00948415       0.04862973      -0.03594350
  |   Hirshfeld dipole moment :      0.06121057
  |   Hirshfeld second moments:     -0.00264526      -0.00374039       0.03035880
  |                                 -0.00374039       0.04377900      -0.00146470
  |                                  0.03035880      -0.00146470       0.01360093
  ----------------------------------------------------------------------
  | Atom   503: O
  |   Hirshfeld charge        :     -0.16030371
  |   Free atom volume        :     23.60491416
  |   Hirshfeld volume        :     22.12482190
  |   Hirshfeld dipole vector :      0.02316691      -0.03266331      -0.03947966
  |   Hirshfeld dipole moment :      0.05623381
  |   Hirshfeld second moments:     -0.01275768       0.01094706       0.00039069
  |                                  0.01094706       0.04700374       0.00172624
  |                                  0.00039069       0.00172624       0.03815468
  ----------------------------------------------------------------------
  | Atom   504: O
  |   Hirshfeld charge        :     -0.16132576
  |   Free atom volume        :     23.60491416
  |   Hirshfeld volume        :     21.87395758
  |   Hirshfeld dipole vector :     -0.04001921       0.00598815      -0.03107592
  |   Hirshfeld dipole moment :      0.05102066
  |   Hirshfeld second moments:      0.04805276       0.03028648       0.00434707
  |                                  0.03028648       0.01297623      -0.01367245
  |                                  0.00434707      -0.01367245       0.03190157
  ----------------------------------------------------------------------

  Converging periodic supercell size for vdw calculation.
  Convergence accuracy (and time!) can be adjusted using the vdw_convergence_threshold keyword.
  | Shell number:     1
  |   VDW energy change:  -0.162743E+02 eV.
  |   Not converged.
  | Shell number:     2
  |   VDW energy change:  -0.377814E+00 eV.
  |   Not converged.
  | Shell number:     3
  |   VDW energy change:  -0.536256E-01 eV.
  |   Not converged.
  | Shell number:     4
  |   VDW energy change:  -0.149272E-01 eV.
  |   Not converged.
  | Shell number:     5
  |   VDW energy change:  -0.565956E-02 eV.
  |   Not converged.
  | Shell number:     6
  |   VDW energy change:  -0.257525E-02 eV.
  |   Not converged.
  | Shell number:     7
  |   VDW energy change:  -0.132378E-02 eV.
  |   Not converged.
  | Shell number:     8
  |   VDW energy change:  -0.743095E-03 eV.
  |   Not converged.
  | Shell number:     9
  |   VDW energy change:  -0.446047E-03 eV.
  |   Not converged.
  | Shell number:    10
  |   VDW energy change:  -0.282339E-03 eV.
  |   Not converged.
  | Shell number:    11
  |   VDW energy change:  -0.186627E-03 eV.
  |   Not converged.
  | Shell number:    12
  |   VDW energy change:  -0.127904E-03 eV.
  |   Not converged.
  | Shell number:    13
  |   VDW energy change:  -0.903967E-04 eV.
  |   Not converged.
  | Shell number:    14
  |   VDW energy change:  -0.656043E-04 eV.
  |   Not converged.
  | Shell number:    15
  |   VDW energy change:  -0.487242E-04 eV.
  |   Not converged.
  | Shell number:    16
  |   VDW energy change:  -0.369295E-04 eV.
  |   Not converged.
  | Shell number:    17
  |   VDW energy change:  -0.284974E-04 eV.
  |   Not converged.
  | Shell number:    18
  |   VDW energy change:  -0.223449E-04 eV.
  |   Not converged.
  | Shell number:    19
  |   VDW energy change:  -0.177729E-04 eV.
  |   Not converged.
  | Shell number:    20
  |   VDW energy change:  -0.143188E-04 eV.
  |   Not converged.
  | Shell number:    21
  |   VDW energy change:  -0.116699E-04 eV.
  |   Not converged.
  | Shell number:    22
  |   VDW energy change:  -0.961087E-05 eV.
  |   Not converged.
  | Shell number:    23
  |   VDW energy change:  -0.799033E-05 eV.
  |   Not converged.
  | Shell number:    24
  |   VDW energy change:  -0.670041E-05 eV.
  |   Not converged.
  | Shell number:    25
  |   VDW energy change:  -0.566296E-05 eV.
  |   Not converged.
  | Shell number:    26
  |   VDW energy change:  -0.482058E-05 eV.
  |   Converged.

  Total energy components:
  | Sum of eigenvalues            :      -12176.12719610 Ha     -331329.27885387 eV
  | XC energy correction          :       -2653.48367812 Ha      -72204.96462993 eV
  | XC potential correction       :        3411.99888283 Ha       92845.21351432 eV
  | Free-atom electrostatic energy:       -9967.33321175 Ha     -271224.93646457 eV
  | Hartree energy correction     :        -162.47323932 Ha       -4421.12178610 eV
  | vdW energy correction         :          -1.12339423 Ha         -30.56911247 eV
  | Entropy correction            :           0.00000000 Ha           0.00000000 eV
  | ---------------------------
  | Total energy                  :      -21548.54183669 Ha     -586365.65733262 eV
  | Total energy, T -> 0          :      -21548.54183669 Ha     -586365.65733262 eV  <-- do not rely on this value for anything but (periodic) metals
  | Electronic free energy        :      -21548.54183669 Ha     -586365.65733262 eV

  Derived energy quantities:
  | Kinetic energy                :       21512.68444348 Ha      585389.92801865 eV
  | Electrostatic energy          :      -40406.61920781 Ha    -1099520.05160888 eV
  | Energy correction for multipole
  | error in Hartree potential    :           3.77229568 Ha         102.64938811 eV
  | Sum of eigenvalues per atom                           :        -657.39936281 eV
  | Total energy (T->0) per atom                          :       -1163.42392328 eV  <-- do not rely on this value for anything but (periodic) metals
  | Electronic free energy per atom                       :       -1163.42392328 eV
  Timings for VdW correction (Tkatchenko-Scheffler 2009 or later):
  | CPU time:       92.897 s, Wall clock time:       92.892 s.

  Energy and forces in a compact form:
  | Total energy uncorrected      :         -0.586365657332624E+06 eV
  | Total energy corrected        :         -0.586365657332624E+06 eV  <-- do not rely on this value for anything but (periodic) metals
  | Electronic free energy        :         -0.586365657332624E+06 eV

  ------------------------------------ 
  Start decomposition of the XC Energy 
  ------------------------------------ 
  X and C from original XC functional choice 
  Hartree-Fock Energy :          0.000000000 Ha              0.000000000 eV
  X Energy            :      -2558.620755401 Ha         -69623.613164905 eV
  C Energy            :        -94.862922723 Ha          -2581.351465020 eV
  Total XC Energy     :      -2653.483678125 Ha         -72204.964629926 eV
  ------------------------------------ 
  LDA X and C from self-consistent density 
  X Energy LDA        :      -2327.580717790 Ha         -63336.693866569 eV
  C Energy LDA        :       -185.610185772 Ha          -5050.710132159 eV
  ------------------------------------ 
  End decomposition of the XC Energy 
  ------------------------------------ 

------------------------------------------------------------

------------------------------------------------------------------------------
  Final output of selected total energy values:

  The following output summarizes some interesting total energy values
  at the end of a run (AFTER all relaxation, molecular dynamics, etc.).

  | Total energy of the DFT / Hartree-Fock s.c.f. calculation      :        -586365.657332624 eV
  | Final zero-broadening corrected energy (caution - metals only) :        -586365.657332624 eV
  | For reference only, the value of 1 Hartree used in FHI-aims is :             27.211384500 eV

  Before relying on these values, please be sure to understand exactly which
  total energy value is referred to by a given number. Different objects may
  all carry the same name 'total energy'. Definitions:

  Total energy of the DFT / Hartree-Fock s.c.f. calculation:
  | Note that this energy does not include ANY quantities calculated after the
  | s.c.f. cycle, in particular not ANY RPA, MP2, etc. many-body perturbation terms.

  Final zero-broadening corrected energy:
  | For metallic systems only, a broadening of the occupation numbers at the Fermi
  | level can be extrapolated back to zero broadening by an electron-gas inspired
  | formula. For all systems that are not real metals, this value can be
  | meaningless and should be avoided.

------------------------------------------------------------------------------
  Methods described in the following list of references were used in this FHI-aims run.
  If you publish the results, please make sure to cite these reference if they apply.
  FHI-aims is an academic code, and for our developers (often, Ph.D. students
  and postdocs), scientific credit in the community is essential.
  Thank you for helping us!

  For any use of FHI-aims, please cite:

    Volker Blum, Ralf Gehrke, Felix Hanke, Paula Havu, Ville Havu,
    Xinguo Ren, Karsten Reuter, and Matthias Scheffler
    'Ab initio molecular simulations with numeric atom-centered orbitals'
    Computer Physics Communications 180, 2175-2196 (2009)
    http://dx.doi.org/10.1016/j.cpc.2009.06.022


  The scalable eigensolver library ELPA was used in your run.
  ELPA is essential especially for large systems on hundreds or thousands of CPUs.
  For ELPA, please cite:

    Andreas Marek, Volker Blum, Rainer Johanni, Ville Havu, Bruno Lang,
    Thomas Auckenthaler, Alexander Heinecke, Hans-Joachim Bungartz, and Hermann Lederer,
    'The ELPA Library - Scalable Parallel Eigenvalue Solutions
    for Electronic Structure Theory and Computational Science'
    The Journal of Physics: Condensed Matter 26, 213201 (2014).
    http://dx.doi.org/10.1088/0953-8984/26/21/213201


  The ELSI infrastructure was used in your run to solve the Kohn-Sham electronic structure.
  Please check out http://elsi-interchange.org to learn more.
  If scalability is important for your project, please acknowledge ELSI by citing:

    V. W-z. Yu, F. Corsetti, A. Garcia, W. P. Huhn, M. Jacquelin, W. Jia,
    B. Lange, L. Lin, J. Lu, W. Mi, A. Seifitokaldani, A. Vazquez-Mayagoitia,
    C. Yang, H. Yang, and V. Blum
    'ELSI: A unified software interface for Kohn-Sham electronic structure solvers'
    Computer Physics Communications 222, 267-285 (2018).
    http://dx.doi.org/10.1016/j.cpc.2017.09.007


  For the real-space grid partitioning and parallelization used in this calculation, please cite:

    Ville Havu, Volker Blum, Paula Havu, and Matthias Scheffler,
    'Efficient O(N) integration for all-electron electronic structure calculation'
    'using numerically tabulated basis functions'
    Journal of Computational Physics 228, 8367-8379 (2009).
    http://dx.doi.org/10.1016/j.jcp.2009.08.008

  Of course, there are many other important community references, e.g., those cited in the
  above references. Our list is limited to references that describe implementations in the
  FHI-aims code. The reason is purely practical (length of this list) - please credit others as well.

------------------------------------------------------------
          Leaving FHI-aims.
          Date     :  20200214, Time     :  181415.161

          Computational steps:
          | Number of self-consistency cycles          :           27
          | Number of SCF (re)initializations          :            1

          Detailed time accounting                     :  max(cpu_time)    wall_clock(cpu1)
          | Total time                                 :     5264.452 s        5264.512 s
          | Preparation time                           :        0.246 s           0.245 s
          | Boundary condition initalization           :       30.128 s          30.127 s
          | Grid partitioning                          :        7.674 s           7.670 s
          | Preloading free-atom quantities on grid    :        0.008 s           0.006 s
          | Free-atom superposition energy             :        4.313 s           4.313 s
          | Total time for integrations                :      257.071 s         257.065 s
          | Total time for solution of K.-S. equations :     2385.534 s        2385.424 s
          | Total time for density update              :      445.847 s         445.828 s
          | Total time for mixing & preconditioning    :     1194.362 s        1194.317 s
          | Total time for Hartree multipole update    :        0.935 s           0.946 s
          | Total time for Hartree multipole sum       :      827.479 s         827.473 s
          | Total time for total energy evaluation     :        0.048 s           0.081 s
          | Total time for scaled ZORA corrections     :        0.000 s           0.000 s
          | Total time for vdW correction              :       92.897 s          92.892 s

          Partial memory accounting:
          | Residual value for overall tracked memory usage across tasks :       35739.652 MB (should be 0.000 MB)
          |
          | Largest tracked array allocation (+KS_eigenvector_complex):
          |   Minimum:      265.421 MB (on task  1)
          |   Maximum:      265.421 MB (on task  1)
          |   Average:      265.421 MB
          |
          | Because the residual tracked memory usage was not zero, the peak value for overall
          | tracked memory usage was not output, as it is probably incorrect.  This is likely due
          | to a missing aims_deallocate statement in the source code, which should be otherwise
          | harmless.
          |
          Note:  These values currently only include a subset of arrays which are explicitly tracked.
          The "true" memory usage will be greater.

          Have a nice day.
------------------------------------------------------------
