  MPI-parallelism will be employed.
------------------------------------------------------------
          Invoking FHI-aims ...
          Version 180424
          Compiled on 2018/04/29 at 14:06:33 on host edison03.

          When using FHI-aims, please cite the following reference:

          Volker Blum, Ralf Gehrke, Felix Hanke, Paula Havu,
          Ville Havu, Xinguo Ren, Karsten Reuter, and Matthias Scheffler,
          'Ab Initio Molecular Simulations with Numeric Atom-Centered Orbitals',
          Computer Physics Communications 180, 2175-2196 (2009)

          For any questions about FHI-aims, please visit the aimsclub website
          with its forums and wiki. Contributions to both the forums and the
          wiki are warmly encouraged - they are for you, and everyone is welcome there.

------------------------------------------------------------



  Date     :  20200218, Time     :  020726.910
  Time zero on CPU 1             :   0.144078000000000E+00  s.
  Internal wall clock time zero  :           351223646.910  s.

  FHI-aims created a unique identifier for this run for later identification
  aims_uuid : A2D6C378-6432-471A-AEFE-2CE1CD358A6C

  Using      512 parallel tasks.
  Task        0 on host nid08905 reporting.
  Task        1 on host nid08905 reporting.
  Task        2 on host nid08905 reporting.
  Task        3 on host nid08905 reporting.
  Task        4 on host nid08905 reporting.
  Task        5 on host nid08905 reporting.
  Task        6 on host nid08905 reporting.
  Task        7 on host nid08905 reporting.
  Task        8 on host nid08905 reporting.
  Task        9 on host nid08905 reporting.
  Task       10 on host nid08905 reporting.
  Task       11 on host nid08905 reporting.
  Task       12 on host nid08905 reporting.
  Task       13 on host nid08905 reporting.
  Task       14 on host nid08905 reporting.
  Task       15 on host nid08905 reporting.
  Task       16 on host nid08905 reporting.
  Task       17 on host nid08905 reporting.
  Task       18 on host nid08905 reporting.
  Task       19 on host nid08905 reporting.
  Task       20 on host nid08905 reporting.
  Task       21 on host nid08905 reporting.
  Task       22 on host nid08905 reporting.
  Task       23 on host nid08905 reporting.
  Task       24 on host nid08905 reporting.
  Task       25 on host nid08905 reporting.
  Task       26 on host nid08905 reporting.
  Task       27 on host nid08905 reporting.
  Task       28 on host nid08905 reporting.
  Task       29 on host nid08905 reporting.
  Task       30 on host nid08905 reporting.
  Task       31 on host nid08905 reporting.
  Task       32 on host nid08955 reporting.
  Task       33 on host nid08955 reporting.
  Task       34 on host nid08955 reporting.
  Task       35 on host nid08955 reporting.
  Task       36 on host nid08955 reporting.
  Task       37 on host nid08955 reporting.
  Task       38 on host nid08955 reporting.
  Task       39 on host nid08955 reporting.
  Task       40 on host nid08955 reporting.
  Task       41 on host nid08955 reporting.
  Task       42 on host nid08955 reporting.
  Task       43 on host nid08955 reporting.
  Task       44 on host nid08955 reporting.
  Task       45 on host nid08955 reporting.
  Task       46 on host nid08955 reporting.
  Task       47 on host nid08955 reporting.
  Task       48 on host nid08955 reporting.
  Task       49 on host nid08955 reporting.
  Task       50 on host nid08955 reporting.
  Task       51 on host nid08955 reporting.
  Task       52 on host nid08955 reporting.
  Task       53 on host nid08955 reporting.
  Task       54 on host nid08955 reporting.
  Task       55 on host nid08955 reporting.
  Task       56 on host nid08955 reporting.
  Task       57 on host nid08955 reporting.
  Task       58 on host nid08955 reporting.
  Task       59 on host nid08955 reporting.
  Task       60 on host nid08955 reporting.
  Task       61 on host nid08955 reporting.
  Task       62 on host nid08955 reporting.
  Task       63 on host nid08955 reporting.
  Task       64 on host nid09030 reporting.
  Task       65 on host nid09030 reporting.
  Task       66 on host nid09030 reporting.
  Task       67 on host nid09030 reporting.
  Task       68 on host nid09030 reporting.
  Task       69 on host nid09030 reporting.
  Task       70 on host nid09030 reporting.
  Task       71 on host nid09030 reporting.
  Task       72 on host nid09030 reporting.
  Task       73 on host nid09030 reporting.
  Task       74 on host nid09030 reporting.
  Task       75 on host nid09030 reporting.
  Task       76 on host nid09030 reporting.
  Task       77 on host nid09030 reporting.
  Task       78 on host nid09030 reporting.
  Task       79 on host nid09030 reporting.
  Task       80 on host nid09030 reporting.
  Task       81 on host nid09030 reporting.
  Task       82 on host nid09030 reporting.
  Task       83 on host nid09030 reporting.
  Task       84 on host nid09030 reporting.
  Task       85 on host nid09030 reporting.
  Task       86 on host nid09030 reporting.
  Task       87 on host nid09030 reporting.
  Task       88 on host nid09030 reporting.
  Task       89 on host nid09030 reporting.
  Task       90 on host nid09030 reporting.
  Task       91 on host nid09030 reporting.
  Task       92 on host nid09030 reporting.
  Task       93 on host nid09030 reporting.
  Task       94 on host nid09030 reporting.
  Task       95 on host nid09030 reporting.
  Task       96 on host nid09078 reporting.
  Task       97 on host nid09078 reporting.
  Task       98 on host nid09078 reporting.
  Task       99 on host nid09078 reporting.
  Task      100 on host nid09078 reporting.
  Task      101 on host nid09078 reporting.
  Task      102 on host nid09078 reporting.
  Task      103 on host nid09078 reporting.
  Task      104 on host nid09078 reporting.
  Task      105 on host nid09078 reporting.
  Task      106 on host nid09078 reporting.
  Task      107 on host nid09078 reporting.
  Task      108 on host nid09078 reporting.
  Task      109 on host nid09078 reporting.
  Task      110 on host nid09078 reporting.
  Task      111 on host nid09078 reporting.
  Task      112 on host nid09078 reporting.
  Task      113 on host nid09078 reporting.
  Task      114 on host nid09078 reporting.
  Task      115 on host nid09078 reporting.
  Task      116 on host nid09078 reporting.
  Task      117 on host nid09078 reporting.
  Task      118 on host nid09078 reporting.
  Task      119 on host nid09078 reporting.
  Task      120 on host nid09078 reporting.
  Task      121 on host nid09078 reporting.
  Task      122 on host nid09078 reporting.
  Task      123 on host nid09078 reporting.
  Task      124 on host nid09078 reporting.
  Task      125 on host nid09078 reporting.
  Task      126 on host nid09078 reporting.
  Task      127 on host nid09078 reporting.
  Task      128 on host nid09088 reporting.
  Task      129 on host nid09088 reporting.
  Task      130 on host nid09088 reporting.
  Task      131 on host nid09088 reporting.
  Task      132 on host nid09088 reporting.
  Task      133 on host nid09088 reporting.
  Task      134 on host nid09088 reporting.
  Task      135 on host nid09088 reporting.
  Task      136 on host nid09088 reporting.
  Task      137 on host nid09088 reporting.
  Task      138 on host nid09088 reporting.
  Task      139 on host nid09088 reporting.
  Task      140 on host nid09088 reporting.
  Task      141 on host nid09088 reporting.
  Task      142 on host nid09088 reporting.
  Task      143 on host nid09088 reporting.
  Task      144 on host nid09088 reporting.
  Task      145 on host nid09088 reporting.
  Task      146 on host nid09088 reporting.
  Task      147 on host nid09088 reporting.
  Task      148 on host nid09088 reporting.
  Task      149 on host nid09088 reporting.
  Task      150 on host nid09088 reporting.
  Task      151 on host nid09088 reporting.
  Task      152 on host nid09088 reporting.
  Task      153 on host nid09088 reporting.
  Task      154 on host nid09088 reporting.
  Task      155 on host nid09088 reporting.
  Task      156 on host nid09088 reporting.
  Task      157 on host nid09088 reporting.
  Task      158 on host nid09088 reporting.
  Task      159 on host nid09088 reporting.
  Task      160 on host nid09127 reporting.
  Task      161 on host nid09127 reporting.
  Task      162 on host nid09127 reporting.
  Task      163 on host nid09127 reporting.
  Task      164 on host nid09127 reporting.
  Task      165 on host nid09127 reporting.
  Task      166 on host nid09127 reporting.
  Task      167 on host nid09127 reporting.
  Task      168 on host nid09127 reporting.
  Task      169 on host nid09127 reporting.
  Task      170 on host nid09127 reporting.
  Task      171 on host nid09127 reporting.
  Task      172 on host nid09127 reporting.
  Task      173 on host nid09127 reporting.
  Task      174 on host nid09127 reporting.
  Task      175 on host nid09127 reporting.
  Task      176 on host nid09127 reporting.
  Task      177 on host nid09127 reporting.
  Task      178 on host nid09127 reporting.
  Task      179 on host nid09127 reporting.
  Task      180 on host nid09127 reporting.
  Task      181 on host nid09127 reporting.
  Task      182 on host nid09127 reporting.
  Task      183 on host nid09127 reporting.
  Task      184 on host nid09127 reporting.
  Task      185 on host nid09127 reporting.
  Task      186 on host nid09127 reporting.
  Task      187 on host nid09127 reporting.
  Task      188 on host nid09127 reporting.
  Task      189 on host nid09127 reporting.
  Task      190 on host nid09127 reporting.
  Task      191 on host nid09127 reporting.
  Task      192 on host nid09140 reporting.
  Task      193 on host nid09140 reporting.
  Task      194 on host nid09140 reporting.
  Task      195 on host nid09140 reporting.
  Task      196 on host nid09140 reporting.
  Task      197 on host nid09140 reporting.
  Task      198 on host nid09140 reporting.
  Task      199 on host nid09140 reporting.
  Task      200 on host nid09140 reporting.
  Task      201 on host nid09140 reporting.
  Task      202 on host nid09140 reporting.
  Task      203 on host nid09140 reporting.
  Task      204 on host nid09140 reporting.
  Task      205 on host nid09140 reporting.
  Task      206 on host nid09140 reporting.
  Task      207 on host nid09140 reporting.
  Task      208 on host nid09140 reporting.
  Task      209 on host nid09140 reporting.
  Task      210 on host nid09140 reporting.
  Task      211 on host nid09140 reporting.
  Task      212 on host nid09140 reporting.
  Task      213 on host nid09140 reporting.
  Task      214 on host nid09140 reporting.
  Task      215 on host nid09140 reporting.
  Task      216 on host nid09140 reporting.
  Task      217 on host nid09140 reporting.
  Task      218 on host nid09140 reporting.
  Task      219 on host nid09140 reporting.
  Task      220 on host nid09140 reporting.
  Task      221 on host nid09140 reporting.
  Task      222 on host nid09140 reporting.
  Task      223 on host nid09140 reporting.
  Task      224 on host nid09175 reporting.
  Task      225 on host nid09175 reporting.
  Task      226 on host nid09175 reporting.
  Task      227 on host nid09175 reporting.
  Task      228 on host nid09175 reporting.
  Task      229 on host nid09175 reporting.
  Task      230 on host nid09175 reporting.
  Task      231 on host nid09175 reporting.
  Task      232 on host nid09175 reporting.
  Task      233 on host nid09175 reporting.
  Task      234 on host nid09175 reporting.
  Task      235 on host nid09175 reporting.
  Task      236 on host nid09175 reporting.
  Task      237 on host nid09175 reporting.
  Task      238 on host nid09175 reporting.
  Task      239 on host nid09175 reporting.
  Task      240 on host nid09175 reporting.
  Task      241 on host nid09175 reporting.
  Task      242 on host nid09175 reporting.
  Task      243 on host nid09175 reporting.
  Task      244 on host nid09175 reporting.
  Task      245 on host nid09175 reporting.
  Task      246 on host nid09175 reporting.
  Task      247 on host nid09175 reporting.
  Task      248 on host nid09175 reporting.
  Task      249 on host nid09175 reporting.
  Task      250 on host nid09175 reporting.
  Task      251 on host nid09175 reporting.
  Task      252 on host nid09175 reporting.
  Task      253 on host nid09175 reporting.
  Task      254 on host nid09175 reporting.
  Task      255 on host nid09175 reporting.
  Task      256 on host nid09179 reporting.
  Task      257 on host nid09179 reporting.
  Task      258 on host nid09179 reporting.
  Task      259 on host nid09179 reporting.
  Task      260 on host nid09179 reporting.
  Task      261 on host nid09179 reporting.
  Task      262 on host nid09179 reporting.
  Task      263 on host nid09179 reporting.
  Task      264 on host nid09179 reporting.
  Task      265 on host nid09179 reporting.
  Task      266 on host nid09179 reporting.
  Task      267 on host nid09179 reporting.
  Task      268 on host nid09179 reporting.
  Task      269 on host nid09179 reporting.
  Task      270 on host nid09179 reporting.
  Task      271 on host nid09179 reporting.
  Task      272 on host nid09179 reporting.
  Task      273 on host nid09179 reporting.
  Task      274 on host nid09179 reporting.
  Task      275 on host nid09179 reporting.
  Task      276 on host nid09179 reporting.
  Task      277 on host nid09179 reporting.
  Task      278 on host nid09179 reporting.
  Task      279 on host nid09179 reporting.
  Task      280 on host nid09179 reporting.
  Task      281 on host nid09179 reporting.
  Task      282 on host nid09179 reporting.
  Task      283 on host nid09179 reporting.
  Task      284 on host nid09179 reporting.
  Task      285 on host nid09179 reporting.
  Task      286 on host nid09179 reporting.
  Task      287 on host nid09179 reporting.
  Task      288 on host nid09181 reporting.
  Task      289 on host nid09181 reporting.
  Task      290 on host nid09181 reporting.
  Task      291 on host nid09181 reporting.
  Task      292 on host nid09181 reporting.
  Task      293 on host nid09181 reporting.
  Task      294 on host nid09181 reporting.
  Task      295 on host nid09181 reporting.
  Task      296 on host nid09181 reporting.
  Task      297 on host nid09181 reporting.
  Task      298 on host nid09181 reporting.
  Task      299 on host nid09181 reporting.
  Task      300 on host nid09181 reporting.
  Task      301 on host nid09181 reporting.
  Task      302 on host nid09181 reporting.
  Task      303 on host nid09181 reporting.
  Task      304 on host nid09181 reporting.
  Task      305 on host nid09181 reporting.
  Task      306 on host nid09181 reporting.
  Task      307 on host nid09181 reporting.
  Task      308 on host nid09181 reporting.
  Task      309 on host nid09181 reporting.
  Task      310 on host nid09181 reporting.
  Task      311 on host nid09181 reporting.
  Task      312 on host nid09181 reporting.
  Task      313 on host nid09181 reporting.
  Task      314 on host nid09181 reporting.
  Task      315 on host nid09181 reporting.
  Task      316 on host nid09181 reporting.
  Task      317 on host nid09181 reporting.
  Task      318 on host nid09181 reporting.
  Task      319 on host nid09181 reporting.
  Task      320 on host nid09201 reporting.
  Task      321 on host nid09201 reporting.
  Task      322 on host nid09201 reporting.
  Task      323 on host nid09201 reporting.
  Task      324 on host nid09201 reporting.
  Task      325 on host nid09201 reporting.
  Task      326 on host nid09201 reporting.
  Task      327 on host nid09201 reporting.
  Task      328 on host nid09201 reporting.
  Task      329 on host nid09201 reporting.
  Task      330 on host nid09201 reporting.
  Task      331 on host nid09201 reporting.
  Task      332 on host nid09201 reporting.
  Task      333 on host nid09201 reporting.
  Task      334 on host nid09201 reporting.
  Task      335 on host nid09201 reporting.
  Task      336 on host nid09201 reporting.
  Task      337 on host nid09201 reporting.
  Task      338 on host nid09201 reporting.
  Task      339 on host nid09201 reporting.
  Task      340 on host nid09201 reporting.
  Task      341 on host nid09201 reporting.
  Task      342 on host nid09201 reporting.
  Task      343 on host nid09201 reporting.
  Task      344 on host nid09201 reporting.
  Task      345 on host nid09201 reporting.
  Task      346 on host nid09201 reporting.
  Task      347 on host nid09201 reporting.
  Task      348 on host nid09201 reporting.
  Task      349 on host nid09201 reporting.
  Task      350 on host nid09201 reporting.
  Task      351 on host nid09201 reporting.
  Task      352 on host nid09203 reporting.
  Task      353 on host nid09203 reporting.
  Task      354 on host nid09203 reporting.
  Task      355 on host nid09203 reporting.
  Task      356 on host nid09203 reporting.
  Task      357 on host nid09203 reporting.
  Task      358 on host nid09203 reporting.
  Task      359 on host nid09203 reporting.
  Task      360 on host nid09203 reporting.
  Task      361 on host nid09203 reporting.
  Task      362 on host nid09203 reporting.
  Task      363 on host nid09203 reporting.
  Task      364 on host nid09203 reporting.
  Task      365 on host nid09203 reporting.
  Task      366 on host nid09203 reporting.
  Task      367 on host nid09203 reporting.
  Task      368 on host nid09203 reporting.
  Task      369 on host nid09203 reporting.
  Task      370 on host nid09203 reporting.
  Task      371 on host nid09203 reporting.
  Task      372 on host nid09203 reporting.
  Task      373 on host nid09203 reporting.
  Task      374 on host nid09203 reporting.
  Task      375 on host nid09203 reporting.
  Task      376 on host nid09203 reporting.
  Task      377 on host nid09203 reporting.
  Task      378 on host nid09203 reporting.
  Task      379 on host nid09203 reporting.
  Task      380 on host nid09203 reporting.
  Task      381 on host nid09203 reporting.
  Task      382 on host nid09203 reporting.
  Task      383 on host nid09203 reporting.
  Task      384 on host nid09344 reporting.
  Task      385 on host nid09344 reporting.
  Task      386 on host nid09344 reporting.
  Task      387 on host nid09344 reporting.
  Task      388 on host nid09344 reporting.
  Task      389 on host nid09344 reporting.
  Task      390 on host nid09344 reporting.
  Task      391 on host nid09344 reporting.
  Task      392 on host nid09344 reporting.
  Task      393 on host nid09344 reporting.
  Task      394 on host nid09344 reporting.
  Task      395 on host nid09344 reporting.
  Task      396 on host nid09344 reporting.
  Task      397 on host nid09344 reporting.
  Task      398 on host nid09344 reporting.
  Task      399 on host nid09344 reporting.
  Task      400 on host nid09344 reporting.
  Task      401 on host nid09344 reporting.
  Task      402 on host nid09344 reporting.
  Task      403 on host nid09344 reporting.
  Task      404 on host nid09344 reporting.
  Task      405 on host nid09344 reporting.
  Task      406 on host nid09344 reporting.
  Task      407 on host nid09344 reporting.
  Task      408 on host nid09344 reporting.
  Task      409 on host nid09344 reporting.
  Task      410 on host nid09344 reporting.
  Task      411 on host nid09344 reporting.
  Task      412 on host nid09344 reporting.
  Task      413 on host nid09344 reporting.
  Task      414 on host nid09344 reporting.
  Task      415 on host nid09344 reporting.
  Task      416 on host nid09912 reporting.
  Task      417 on host nid09912 reporting.
  Task      418 on host nid09912 reporting.
  Task      419 on host nid09912 reporting.
  Task      420 on host nid09912 reporting.
  Task      421 on host nid09912 reporting.
  Task      422 on host nid09912 reporting.
  Task      423 on host nid09912 reporting.
  Task      424 on host nid09912 reporting.
  Task      425 on host nid09912 reporting.
  Task      426 on host nid09912 reporting.
  Task      427 on host nid09912 reporting.
  Task      428 on host nid09912 reporting.
  Task      429 on host nid09912 reporting.
  Task      430 on host nid09912 reporting.
  Task      431 on host nid09912 reporting.
  Task      432 on host nid09912 reporting.
  Task      433 on host nid09912 reporting.
  Task      434 on host nid09912 reporting.
  Task      435 on host nid09912 reporting.
  Task      436 on host nid09912 reporting.
  Task      437 on host nid09912 reporting.
  Task      438 on host nid09912 reporting.
  Task      439 on host nid09912 reporting.
  Task      440 on host nid09912 reporting.
  Task      441 on host nid09912 reporting.
  Task      442 on host nid09912 reporting.
  Task      443 on host nid09912 reporting.
  Task      444 on host nid09912 reporting.
  Task      445 on host nid09912 reporting.
  Task      446 on host nid09912 reporting.
  Task      447 on host nid09912 reporting.
  Task      448 on host nid10632 reporting.
  Task      449 on host nid10632 reporting.
  Task      450 on host nid10632 reporting.
  Task      451 on host nid10632 reporting.
  Task      452 on host nid10632 reporting.
  Task      453 on host nid10632 reporting.
  Task      454 on host nid10632 reporting.
  Task      455 on host nid10632 reporting.
  Task      456 on host nid10632 reporting.
  Task      457 on host nid10632 reporting.
  Task      458 on host nid10632 reporting.
  Task      459 on host nid10632 reporting.
  Task      460 on host nid10632 reporting.
  Task      461 on host nid10632 reporting.
  Task      462 on host nid10632 reporting.
  Task      463 on host nid10632 reporting.
  Task      464 on host nid10632 reporting.
  Task      465 on host nid10632 reporting.
  Task      466 on host nid10632 reporting.
  Task      467 on host nid10632 reporting.
  Task      468 on host nid10632 reporting.
  Task      469 on host nid10632 reporting.
  Task      470 on host nid10632 reporting.
  Task      471 on host nid10632 reporting.
  Task      472 on host nid10632 reporting.
  Task      473 on host nid10632 reporting.
  Task      474 on host nid10632 reporting.
  Task      475 on host nid10632 reporting.
  Task      476 on host nid10632 reporting.
  Task      477 on host nid10632 reporting.
  Task      478 on host nid10632 reporting.
  Task      479 on host nid10632 reporting.
  Task      480 on host nid10658 reporting.
  Task      481 on host nid10658 reporting.
  Task      482 on host nid10658 reporting.
  Task      483 on host nid10658 reporting.
  Task      484 on host nid10658 reporting.
  Task      485 on host nid10658 reporting.
  Task      486 on host nid10658 reporting.
  Task      487 on host nid10658 reporting.
  Task      488 on host nid10658 reporting.
  Task      489 on host nid10658 reporting.
  Task      490 on host nid10658 reporting.
  Task      491 on host nid10658 reporting.
  Task      492 on host nid10658 reporting.
  Task      493 on host nid10658 reporting.
  Task      494 on host nid10658 reporting.
  Task      495 on host nid10658 reporting.
  Task      496 on host nid10658 reporting.
  Task      497 on host nid10658 reporting.
  Task      498 on host nid10658 reporting.
  Task      499 on host nid10658 reporting.
  Task      500 on host nid10658 reporting.
  Task      501 on host nid10658 reporting.
  Task      502 on host nid10658 reporting.
  Task      503 on host nid10658 reporting.
  Task      504 on host nid10658 reporting.
  Task      505 on host nid10658 reporting.
  Task      506 on host nid10658 reporting.
  Task      507 on host nid10658 reporting.
  Task      508 on host nid10658 reporting.
  Task      509 on host nid10658 reporting.
  Task      510 on host nid10658 reporting.
  Task      511 on host nid10658 reporting.

  Performing system and environment tests:
  | Environment variable OMP_NUM_THREADS correctly set to 1.
  | Stacksize not measured: no C compiler
  | Checking for scalapack...
  | Testing pdtran()...
  | All pdtran() tests passed.

  Obtaining array dimensions for all initial allocations:
  
  -----------------------------------------------------------------------
  Parsing control.in (first pass over file, find array dimensions only).
  The contents of control.in will be repeated verbatim below
  unless switched off by setting 'verbatim_writeout .false.' .
  in the first line of control.in .
  -----------------------------------------------------------------------
  
  #===============================================================================
  # FHI-aims file: ./control.in
  # Created using the Atomic Simulation Environment (ASE)
  # Sat Feb 15 07:30:34 2020
  #===============================================================================
  xc                                 pbe
  spin                               none
  relativistic                       atomic_zora scalar
  charge                             0
  occupation_type                    gaussian 0.01
  mixer                              pulay
  n_max_pulay                        8
  charge_mix_param                   0.02
  sc_accuracy_rho                    0.0001
  sc_accuracy_eev                    0.01
  sc_accuracy_etot                   1e-06
  sc_iter_limit                      10000
  KS_method                          parallel
  empty_states                       6
  basis_threshold                    1e-05
  k_grid                             4 4 1
  vdw_correction_hirshfeld
  use_dipole_correction              .true.
  #===============================================================================
  
  ################################################################################
  #
  #  FHI-aims code project
  #  VB, Fritz-Haber Institut, 2009
  #
  #  Suggested "light" defaults for H atom (to be pasted into control.in file)
  #  Be sure to double-check any results obtained with these settings for post-processing,
  #  e.g., with the "tight" defaults and larger basis sets.
  #
  ################################################################################
    species        H
  #     global species definitions
      nucleus             1
      mass                1.00794
  #
      l_hartree           4
  #
      cut_pot             3.5  1.5  1.0
      basis_dep_cutoff    1e-4
  #
      radial_base         24 5.0
      radial_multiplier   1
      angular_grids       specified
        division   0.2421   50
        division   0.3822  110
        division   0.4799  194
        division   0.5341  302
  #      division   0.5626  434
  #      division   0.5922  590
  #      division   0.6542  770
  #      division   0.6868 1202
  #      outer_grid  770
        outer_grid  302
  ################################################################################
  #
  #  Definition of "minimal" basis
  #
  ################################################################################
  #     valence basis states
      valence      1  s   1.
  #     ion occupancy
      ion_occ      1  s   0.5
  ################################################################################
  #
  #  Suggested additional basis functions. For production calculations,
  #  uncomment them one after another (the most important basis functions are
  #  listed first).
  #
  #  Basis constructed for dimers: 0.5 A, 0.7 A, 1.0 A, 1.5 A, 2.5 A
  #
  ################################################################################
  #  "First tier" - improvements: -1014.90 meV to -62.69 meV
       hydro 2 s 2.1
       hydro 2 p 3.5
  #  "Second tier" - improvements: -12.89 meV to -1.83 meV
  #     hydro 1 s 0.85
  #     hydro 2 p 3.7
  #     hydro 2 s 1.2
  #     hydro 3 d 7
  #  "Third tier" - improvements: -0.25 meV to -0.12 meV
  #     hydro 4 f 11.2
  #     hydro 3 p 4.8
  #     hydro 4 d 9
  #     hydro 3 s 3.2
  ################################################################################
  #
  #  FHI-aims code project
  #  VB, Fritz-Haber Institut, 2009
  #
  #  Suggested "light" defaults for C atom (to be pasted into control.in file)
  #  Be sure to double-check any results obtained with these settings for post-processing,
  #  e.g., with the "tight" defaults and larger basis sets.
  #
  ################################################################################
    species        C
  #     global species definitions
      nucleus             6
      mass                12.0107
  #
      l_hartree           4
  #
      cut_pot             3.5  1.5  1.0
      basis_dep_cutoff    1e-4
  #
      radial_base         34 5.0
      radial_multiplier   1
      angular_grids specified
        division   0.3326   50
        division   0.5710  110
        division   0.7727  194
        division   0.8772  302
  #      division   0.9334  434
  #      division   0.9625  590
  #      division   0.9924  770
  #      division   1.0230  974
  #      division   1.4589 1202
  #     outer_grid  974
       outer_grid 302
  ################################################################################
  #
  #  Definition of "minimal" basis
  #
  ################################################################################
  #     valence basis states
      valence      2  s   2.
      valence      2  p   2.
  #     ion occupancy
      ion_occ      2  s   1.
      ion_occ      2  p   1.
  ################################################################################
  #
  #  Suggested additional basis functions. For production calculations,
  #  uncomment them one after another (the most important basis functions are
  #  listed first).
  #
  #  Constructed for dimers: 1.0 A, 1.25 A, 1.5 A, 2.0 A, 3.0 A
  #
  ################################################################################
  #  "First tier" - improvements: -1214.57 meV to -155.61 meV
       hydro 2 p 1.7
       hydro 3 d 6
       hydro 2 s 4.9
  #  "Second tier" - improvements: -67.75 meV to -5.23 meV
  #     hydro 4 f 9.8
  #     hydro 3 p 5.2
  #     hydro 3 s 4.3
  #     hydro 5 g 14.4
  #     hydro 3 d 6.2
  #  "Third tier" - improvements: -2.43 meV to -0.60 meV
  #     hydro 2 p 5.6
  #     hydro 2 s 1.4
  #     hydro 3 d 4.9
  #     hydro 4 f 11.2
  #  "Fourth tier" - improvements: -0.39 meV to -0.18 meV
  #     hydro 2 p 2.1
  #     hydro 5 g 16.4
  #     hydro 4 d 13.2
  #     hydro 3 s 13.6
  #     hydro 4 f 17.6
  #  Further basis functions - improvements: -0.08 meV and below
  #     hydro 3 s 2
  #     hydro 3 p 6
  #     hydro 4 d 20
  ################################################################################
  #
  #  FHI-aims code project
  #  VB, Fritz-Haber Institut, 2009
  #
  #  Suggested "light" defaults for N atom (to be pasted into control.in file)
  #  Be sure to double-check any results obtained with these settings for post-processing,
  #  e.g., with the "tight" defaults and larger basis sets.
  #
  ################################################################################
    species        N
  #     global species definitions
      nucleus             7
      mass                14.0067
  #
      l_hartree           4
  #
      cut_pot             3.5  1.5  1.0
      basis_dep_cutoff    1e-4
  #
      radial_base         35 5.0
      radial_multiplier   1
      angular_grids       specified
        division   0.2599   50
        division   0.4601  110
        division   0.5885  194
        division   0.6503  302
  #      division   0.6939  434
  #      division   0.7396  590
  #      division   0.7632  770
  #      division   0.8122  974
  #      division   1.1604 1202
  #      outer_grid  974
        outer_grid  302
  ################################################################################
  #
  #  Definition of "minimal" basis
  #
  ################################################################################
  #     valence basis states
      valence      2  s   2.
      valence      2  p   3.
  #     ion occupancy
      ion_occ      2  s   1.
      ion_occ      2  p   2.
  ################################################################################
  #
  #  Suggested additional basis functions. For production calculations,
  #  uncomment them one after another (the most important basis functions are
  #  listed first).
  #
  #  Constructed for dimers: 1.0 A, 1.1 A, 1.5 A, 2.0 A, 3.0 A
  #
  ################################################################################
  #  "First tier" - improvements: -1193.42 meV to -220.60 meV
       hydro 2 p 1.8
       hydro 3 d 6.8
       hydro 3 s 5.8
  #  "Second tier" - improvements: -80.21 meV to -6.86 meV
  #     hydro 4 f 10.8
  #     hydro 3 p 5.8
  #     hydro 1 s 0.8
  #     hydro 5 g 16
  #     hydro 3 d 4.9
  #  "Third tier" - improvements: -4.29 meV to -0.53 meV
  #     hydro 3 s 16
  #     ionic 2 p auto
  #     hydro 3 d 6.6
  #     hydro 4 f 11.6
  #  "Fourth tier" - improvements: -0.75 meV to -0.25 meV
  #     hydro 2 p 4.5
  #     hydro 2 s 2.4
  #     hydro 5 g 14.4
  #     hydro 4 d 14.4
  #     hydro 4 f 16.8
  # Further basis functions - -0.21 meV and below
  #     hydro 3 p 14.8
  #     hydro 3 s 4.4
  #     hydro 3 d 19.6
  #     hydro 5 g 12.8
  ################################################################################
  #
  #  FHI-aims code project
  #  VB, Fritz-Haber Institut, 2009
  #
  #  Suggested "light" defaults for O atom (to be pasted into control.in file)
  #  Be sure to double-check any results obtained with these settings for post-processing,
  #  e.g., with the "tight" defaults and larger basis sets.
  #
  ################################################################################
    species        O
  #     global species definitions
      nucleus             8
      mass                15.9994
  #
      l_hartree           4
  #
      cut_pot             3.5  1.5  1.0
      basis_dep_cutoff    1e-4
  #
      radial_base         36 5.0
      radial_multiplier   1
       angular_grids specified
        division   0.2659   50
        division   0.4451  110
        division   0.6052  194
        division   0.7543  302
  #      division   0.8014  434
  #      division   0.8507  590
  #      division   0.8762  770
  #      division   0.9023  974
  #      division   1.2339 1202
  #      outer_grid 974
        outer_grid 302
  ################################################################################
  #
  #  Definition of "minimal" basis
  #
  ################################################################################
  #     valence basis states
      valence      2  s   2.
      valence      2  p   4.
  #     ion occupancy
      ion_occ      2  s   1.
      ion_occ      2  p   3.
  ################################################################################
  #
  #  Suggested additional basis functions. For production calculations,
  #  uncomment them one after another (the most important basis functions are
  #  listed first).
  #
  #  Constructed for dimers: 1.0 A, 1.208 A, 1.5 A, 2.0 A, 3.0 A
  #
  ################################################################################
  #  "First tier" - improvements: -699.05 meV to -159.38 meV
       hydro 2 p 1.8
       hydro 3 d 7.6
       hydro 3 s 6.4
  #  "Second tier" - improvements: -49.91 meV to -5.39 meV
  #     hydro 4 f 11.6
  #     hydro 3 p 6.2
  #     hydro 3 d 5.6
  #     hydro 5 g 17.6
  #     hydro 1 s 0.75
  #  "Third tier" - improvements: -2.83 meV to -0.50 meV
  #     ionic 2 p auto
  #     hydro 4 f 10.8
  #     hydro 4 d 4.7
  #     hydro 2 s 6.8
  #  "Fourth tier" - improvements: -0.40 meV to -0.12 meV
  #     hydro 3 p 5
  #     hydro 3 s 3.3
  #     hydro 5 g 15.6
  #     hydro 4 f 17.6
  #     hydro 4 d 14
  # Further basis functions - -0.08 meV and below
  #     hydro 3 s 2.1
  #     hydro 4 d 11.6
  #     hydro 3 p 16
  #     hydro 2 s 17.2
  
  -----------------------------------------------------------------------
  Completed first pass over input file control.in .
  -----------------------------------------------------------------------
  
  
  -----------------------------------------------------------------------
  Parsing geometry.in (first pass over file, find array dimensions only).
  The contents of geometry.in will be repeated verbatim below
  unless switched off by setting 'verbatim_writeout .false.' .
  in the first line of geometry.in .
  -----------------------------------------------------------------------
  
  #=======================================================
  # FHI-aims file: ./geometry.in
  # Created using the Atomic Simulation Environment (ASE)
  # Sat Feb 15 07:30:34 2020
  #=======================================================
  lattice_vector 6.5957600000000003 0.0000000000000000 0.0000000000000000
  lattice_vector -1.5450440000000001 7.2328489999999999 0.0000000000000000
  lattice_vector 0.0000000000000000 0.0000000000000000 223.2607720000000029
  atom_frac 0.7022389999999999 0.7714430000000000 0.1901420000000000 H
  atom_frac 0.8527860000000000 0.7481320000000001 0.2148850000000000 H
  atom_frac 0.3500430000000000 0.2473650000000000 0.1925740000000000 H
  atom_frac 0.7536680000000000 0.3937020000000001 0.1816130000000000 H
  atom_frac 0.7996330000000001 0.1252500000000000 0.2063370000000000 H
  atom_frac 0.2988840000000000 0.6252560000000001 0.2011040000000000 H
  atom_frac 0.5320430000000000 0.8299350000000001 0.1846390000000000 H
  atom_frac 0.0220780000000000 0.6893630000000001 0.2093640000000000 H
  atom_frac 0.5204460000000000 0.1889920000000000 0.1980600000000000 H
  atom_frac 0.8566390000000002 0.5554530000000000 0.1873770000000000 H
  atom_frac 0.6981000000000002 0.9643940000000000 0.2121470000000000 H
  atom_frac 0.1956740000000000 0.4633950000000001 0.1953490000000000 H
  atom_frac 0.2063670000000000 0.2733600000000000 0.2172180000000000 H
  atom_frac 0.2593690000000001 0.8961910000000001 0.2257570000000000 H
  atom_frac 0.0370650000000000 0.3321490000000000 0.2227400000000000 H
  atom_frac 0.3610330000000000 0.0570980000000000 0.2199560000000000 H
  atom_frac 0.7090190000000000 0.7739360000000000 0.2395200000000000 H
  atom_frac 0.8595670000000002 0.7506260000000001 0.2642630000000000 H
  atom_frac 0.3568230000000001 0.2498590000000000 0.2419520000000000 H
  atom_frac 0.7604480000000001 0.3961950000000001 0.2309900000000000 H
  atom_frac 0.8064130000000002 0.1277440000000000 0.2557150000000000 H
  atom_frac 0.3056640000000000 0.6277500000000001 0.2504820000000000 H
  atom_frac 0.5388230000000001 0.8324279999999999 0.2340170000000000 H
  atom_frac 0.0288580000000000 0.6918570000000002 0.2587420000000000 H
  atom_frac 0.5272260000000001 0.1914860000000000 0.2474370000000000 H
  atom_frac 0.8634190000000002 0.5579470000000000 0.2367550000000000 H
  atom_frac 0.7048810000000000 0.9668870000000001 0.2615250000000000 H
  atom_frac 0.2024540000000000 0.4658890000000001 0.2447260000000000 H
  atom_frac 0.2131470000000000 0.2758540000000000 0.2665960000000000 H
  atom_frac 0.2661490000000000 0.8986850000000001 0.2751350000000000 H
  atom_frac 0.0438450000000000 0.3346420000000000 0.2721170000000000 H
  atom_frac 0.3678130000000000 0.0595920000000000 0.2693340000000000 H
  atom_frac 0.7158010000000001 0.7764300000000000 0.2889070000000000 H
  atom_frac 0.8663480000000001 0.7531200000000001 0.3136500000000000 H
  atom_frac 0.3636040000000000 0.2523530000000000 0.2913390000000000 H
  atom_frac 0.7672290000000000 0.3986900000000000 0.2803770000000000 H
  atom_frac 0.8131940000000000 0.1302380000000000 0.3051020000000000 H
  atom_frac 0.3124460000000000 0.6302440000000001 0.2998680000000000 H
  atom_frac 0.5456050000000000 0.8349220000000001 0.2834030000000000 H
  atom_frac 0.0356400000000000 0.6943510000000002 0.3081280000000000 H
  atom_frac 0.5340080000000000 0.1939800000000000 0.2968240000000000 H
  atom_frac 0.8702010000000000 0.5604410000000000 0.2861410000000000 H
  atom_frac 0.7116620000000000 0.9693820000000000 0.3109109999999999 H
  atom_frac 0.2092350000000000 0.4683830000000000 0.2941130000000000 H
  atom_frac 0.2199280000000000 0.2783480000000000 0.3159820000000000 H
  atom_frac 0.2729310000000000 0.9011790000000001 0.3245210000000000 H
  atom_frac 0.0506270000000000 0.3371370000000001 0.3215040000000000 H
  atom_frac 0.3745940000000000 0.0620860000000000 0.3187210000000000 H
  atom_frac 0.7225810000000000 0.7789239999999999 0.3382839999999999 H
  atom_frac 0.8731280000000000 0.7556140000000001 0.3630269999999999 H
  atom_frac 0.3703850000000000 0.2548470000000000 0.3407160000000000 H
  atom_frac 0.7740089999999999 0.4011830000000000 0.3297540000000000 H
  atom_frac 0.8199740000000000 0.1327320000000000 0.3544790000000000 H
  atom_frac 0.3192260000000001 0.6327380000000001 0.3492460000000000 H
  atom_frac 0.5523850000000000 0.8374160000000000 0.3327809999999999 H
  atom_frac 0.0424200000000000 0.6968450000000002 0.3575059999999999 H
  atom_frac 0.5407880000000000 0.1964740000000000 0.3462020000000000 H
  atom_frac 0.8769810000000001 0.5629340000000000 0.3355190000000000 H
  atom_frac 0.7184420000000001 0.9718750000000002 0.3602890000000000 H
  atom_frac 0.2160160000000000 0.4708770000000000 0.3434900000000000 H
  atom_frac 0.2267090000000000 0.2808410000000000 0.3653600000000000 H
  atom_frac 0.2797110000000000 0.9036730000000001 0.3738989999999999 H
  atom_frac 0.0574070000000000 0.3396300000000000 0.3708810000000000 H
  atom_frac 0.3813740000000000 0.0645800000000000 0.3680980000000000 H
  atom_frac 0.7293620000000000 0.7814179999999999 0.3876709999999999 H
  atom_frac 0.8799100000000000 0.7581080000000000 0.4124139999999999 H
  atom_frac 0.3771660000000000 0.2573410000000000 0.3901030000000000 H
  atom_frac 0.7807910000000001 0.4036770000000000 0.3791410000000000 H
  atom_frac 0.8267560000000002 0.1352260000000000 0.4038659999999999 H
  atom_frac 0.3260070000000000 0.6352320000000001 0.3986330000000000 H
  atom_frac 0.5591660000000002 0.8399100000000000 0.3821669999999999 H
  atom_frac 0.0492010000000000 0.6993390000000000 0.4068919999999999 H
  atom_frac 0.5475690000000000 0.1989680000000000 0.3955879999999999 H
  atom_frac 0.8837620000000000 0.5654280000000000 0.3849060000000000 H
  atom_frac 0.7252240000000000 0.9743690000000002 0.4096759999999999 H
  atom_frac 0.2227970000000000 0.4733710000000000 0.3928770000000000 H
  atom_frac 0.2334900000000000 0.2833350000000000 0.4147470000000000 H
  atom_frac 0.2864920000000001 0.9061670000000001 0.4232850000000000 H
  atom_frac 0.0641880000000000 0.3421240000000000 0.4202680000000000 H
  atom_frac 0.3881560000000000 0.0670740000000000 0.4174849999999999 H
  atom_frac 0.7361420000000000 0.7839120000000001 0.4370490000000000 H
  atom_frac 0.8866900000000001 0.7606010000000000 0.4617910000000000 H
  atom_frac 0.3839460000000000 0.2598350000000000 0.4394799999999999 H
  atom_frac 0.7875710000000001 0.4061710000000000 0.4285190000000000 H
  atom_frac 0.8335360000000001 0.1377200000000000 0.4532440000000000 H
  atom_frac 0.3327870000000001 0.6377250000000000 0.4480100000000000 H
  atom_frac 0.5659470000000000 0.8424040000000000 0.4315450000000000 H
  atom_frac 0.0559820000000000 0.7018320000000000 0.4562700000000000 H
  atom_frac 0.5543490000000000 0.2014620000000000 0.4449660000000000 H
  atom_frac 0.8905430000000000 0.5679220000000000 0.4342829999999999 H
  atom_frac 0.7320040000000000 0.9768630000000001 0.4590529999999999 H
  atom_frac 0.2295770000000000 0.4758650000000000 0.4422550000000000 H
  atom_frac 0.2402700000000000 0.2858290000000000 0.4641239999999999 H
  atom_frac 0.2932730000000000 0.9086600000000000 0.4726630000000000 H
  atom_frac 0.0709680000000000 0.3446180000000000 0.4696460000000000 H
  atom_frac 0.3949360000000001 0.0695670000000000 0.4668620000000000 H
  atom_frac 0.7429240000000000 0.7864060000000000 0.4864350000000000 H
  atom_frac 0.8934710000000000 0.7630950000000000 0.5111780000000000 H
  atom_frac 0.3907280000000000 0.2623290000000000 0.4888669999999999 H
  atom_frac 0.7943519999999999 0.4086650000000000 0.4779050000000000 H
  atom_frac 0.8403170000000000 0.1402140000000000 0.5026300000000000 H
  atom_frac 0.3395690000000001 0.6402190000000000 0.4973969999999999 H
  atom_frac 0.5727280000000000 0.8448980000000000 0.4809320000000000 H
  atom_frac 0.0627630000000000 0.7043270000000000 0.5056570000000000 H
  atom_frac 0.5611310000000000 0.2039560000000000 0.4943520000000000 H
  atom_frac 0.8973240000000002 0.5704160000000001 0.4836700000000000 H
  atom_frac 0.7387850000000001 0.9793570000000001 0.5084400000000000 H
  atom_frac 0.2363590000000000 0.4783590000000000 0.4916409999999999 H
  atom_frac 0.2470510000000000 0.2883230000000000 0.5135110000000001 H
  atom_frac 0.3000540000000000 0.9111540000000000 0.5220500000000000 H
  atom_frac 0.0777500000000000 0.3471120000000000 0.5190320000000000 H
  atom_frac 0.4017170000000000 0.0720620000000000 0.5162490000000000 H
  atom_frac 0.7497040000000000 0.7889000000000000 0.5358129999999999 H
  atom_frac 0.9002510000000000 0.7655890000000000 0.5605559999999999 H
  atom_frac 0.3975080000000000 0.2648220000000000 0.5382450000000000 H
  atom_frac 0.8011330000000000 0.4111590000000000 0.5272829999999998 H
  atom_frac 0.8470980000000001 0.1427070000000000 0.5520080000000001 H
  atom_frac 0.3463490000000000 0.6427130000000000 0.5467750000000000 H
  atom_frac 0.5795080000000000 0.8473920000000000 0.5303090000000000 H
  atom_frac 0.0695430000000000 0.7068200000000000 0.5550340000000000 H
  atom_frac 0.5679110000000001 0.2064490000000000 0.5437300000000000 H
  atom_frac 0.9041040000000001 0.5729100000000001 0.5330480000000000 H
  atom_frac 0.7455650000000001 0.9818510000000001 0.5578170000000000 H
  atom_frac 0.2431390000000000 0.4808520000000000 0.5410190000000000 H
  atom_frac 0.2538320000000000 0.2908170000000000 0.5628879999999999 H
  atom_frac 0.3068340000000000 0.9136480000000000 0.5714270000000000 H
  atom_frac 0.0845300000000000 0.3496060000000000 0.5684100000000000 H
  atom_frac 0.4084980000000000 0.0745550000000000 0.5656270000000000 H
  atom_frac 0.7564850000000001 0.7913940000000000 0.5851990000000000 H
  atom_frac 0.9070330000000001 0.7680830000000000 0.6099419999999999 H
  atom_frac 0.4042890000000000 0.2673160000000000 0.5876310000000000 H
  atom_frac 0.8079140000000001 0.4136530000000000 0.5766690000000000 H
  atom_frac 0.8538790000000001 0.1452020000000000 0.6013940000000000 H
  atom_frac 0.3531300000000001 0.6452070000000000 0.5961610000000001 H
  atom_frac 0.5862900000000000 0.8498860000000000 0.5796959999999999 H
  atom_frac 0.0763250000000000 0.7093140000000000 0.6044209999999999 H
  atom_frac 0.5746920000000000 0.2089430000000000 0.5931170000000000 H
  atom_frac 0.9108860000000000 0.5754040000000001 0.5824339999999999 H
  atom_frac 0.7523470000000000 0.9843450000000001 0.6072040000000000 H
  atom_frac 0.2499200000000000 0.4833470000000000 0.5904060000000000 H
  atom_frac 0.2606130000000000 0.2933110000000000 0.6122750000000000 H
  atom_frac 0.3136160000000000 0.9161420000000000 0.6208139999999999 H
  atom_frac 0.0913110000000000 0.3521000000000000 0.6177960000000000 H
  atom_frac 0.4152790000000001 0.0770490000000000 0.6150130000000000 H
  atom_frac 0.7632650000000001 0.7938870000000001 0.6345769999999999 H
  atom_frac 0.9138130000000001 0.7705770000000000 0.6593199999999999 H
  atom_frac 0.4110690000000001 0.2698100000000000 0.6370090000000000 H
  atom_frac 0.8146940000000000 0.4161470000000000 0.6260470000000000 H
  atom_frac 0.8606590000000000 0.1476950000000000 0.6507720000000000 H
  atom_frac 0.3599110000000000 0.6477010000000000 0.6455389999999999 H
  atom_frac 0.5930700000000001 0.8523790000000000 0.6290740000000000 H
  atom_frac 0.0831050000000000 0.7118080000000000 0.6537979999999999 H
  atom_frac 0.5814730000000000 0.2114370000000000 0.6424940000000000 H
  atom_frac 0.9176660000000002 0.5778980000000001 0.6318120000000000 H
  atom_frac 0.7591270000000001 0.9868390000000001 0.6565819999999999 H
  atom_frac 0.2567000000000000 0.4858400000000000 0.6397830000000000 H
  atom_frac 0.2673930000000000 0.2958050000000000 0.6616529999999999 H
  atom_frac 0.3203960000000001 0.9186360000000000 0.6701909999999999 H
  atom_frac 0.0980910000000000 0.3545940000000000 0.6671739999999999 H
  atom_frac 0.4220590000000000 0.0795430000000000 0.6643909999999998 H
  atom_frac 0.7700470000000000 0.7963810000000001 0.6839640000000000 H
  atom_frac 0.9205940000000000 0.7730710000000001 0.7087059999999999 H
  atom_frac 0.4178510000000000 0.2723040000000000 0.6863950000000000 H
  atom_frac 0.8214760000000001 0.4186410000000000 0.6754340000000000 H
  atom_frac 0.8674410000000001 0.1501890000000000 0.7001589999999999 H
  atom_frac 0.3666920000000000 0.6501950000000000 0.6949250000000000 H
  atom_frac 0.5998510000000000 0.8548730000000000 0.6784600000000000 H
  atom_frac 0.0898860000000000 0.7143020000000001 0.7031849999999999 H
  atom_frac 0.5882540000000001 0.2139310000000000 0.6918810000000000 H
  atom_frac 0.9244470000000001 0.5803920000000001 0.6811979999999999 H
  atom_frac 0.7659080000000000 0.9893330000000000 0.7059680000000000 H
  atom_frac 0.2634820000000000 0.4883340000000000 0.6891699999999998 H
  atom_frac 0.2741750000000000 0.2982990000000000 0.7110390000000000 H
  atom_frac 0.3271770000000000 0.9211300000000000 0.7195780000000001 H
  atom_frac 0.1048730000000000 0.3570880000000000 0.7165610000000000 H
  atom_frac 0.4288410000000000 0.0820370000000000 0.7137770000000000 H
  atom_frac 0.7768270000000002 0.7988750000000001 0.7333410000000000 H
  atom_frac 0.9273740000000001 0.7755650000000001 0.7580839999999999 H
  atom_frac 0.4246310000000000 0.2747980000000000 0.7357730000000000 H
  atom_frac 0.8282560000000001 0.4211340000000000 0.7248110000000000 H
  atom_frac 0.8742210000000001 0.1526830000000000 0.7495360000000000 H
  atom_frac 0.3734720000000001 0.6526890000000000 0.7443030000000000 H
  atom_frac 0.6066310000000001 0.8573670000000000 0.7278379999999999 H
  atom_frac 0.0966660000000000 0.7167960000000001 0.7525629999999999 H
  atom_frac 0.5950340000000000 0.2164250000000000 0.7412580000000000 H
  atom_frac 0.9312270000000000 0.5828850000000000 0.7305759999999999 H
  atom_frac 0.7726880000000000 0.9918260000000000 0.7553460000000000 H
  atom_frac 0.2702620000000001 0.4908280000000000 0.7385469999999998 H
  atom_frac 0.2809550000000000 0.3007920000000001 0.7604170000000000 H
  atom_frac 0.3339570000000001 0.9236240000000000 0.7689559999999999 H
  atom_frac 0.1116530000000000 0.3595810000000000 0.7659380000000000 H
  atom_frac 0.4356210000000000 0.0845310000000000 0.7631549999999999 H
  atom_frac 0.7836080000000001 0.8013690000000001 0.7827279999999999 H
  atom_frac 0.9341560000000000 0.7780590000000001 0.8074710000000000 H
  atom_frac 0.4314120000000000 0.2772920000000000 0.7851600000000000 H
  atom_frac 0.8350370000000000 0.4236280000000000 0.7741979999999999 H
  atom_frac 0.8810020000000000 0.1551770000000000 0.7989229999999999 H
  atom_frac 0.3802540000000001 0.6551830000000001 0.7936899999999999 H
  atom_frac 0.6134130000000000 0.8598610000000000 0.7772240000000000 H
  atom_frac 0.1034480000000000 0.7192900000000001 0.8019490000000000 H
  atom_frac 0.6018150000000000 0.2189190000000000 0.7906449999999999 H
  atom_frac 0.9380090000000001 0.5853800000000000 0.7799629999999999 H
  atom_frac 0.7794700000000001 0.9943200000000000 0.8047319999999999 H
  atom_frac 0.2770430000000000 0.4933220000000000 0.7879340000000000 H
  atom_frac 0.2877360000000000 0.3032870000000000 0.8098029999999999 H
  atom_frac 0.3407390000000001 0.9261180000000000 0.8183420000000000 H
  atom_frac 0.1184340000000000 0.3620750000000000 0.8153250000000000 H
  atom_frac 0.4424020000000000 0.0870250000000000 0.8125420000000000 H
  atom_frac 0.5509510000000000 0.7262130000000000 0.1879720000000000 C
  atom_frac 0.0037260000000000 0.7933220000000000 0.2126970000000000 C
  atom_frac 0.5014080000000000 0.2926240000000000 0.1947270000000000 C
  atom_frac 0.7207060000000001 0.4534080000000000 0.1859000000000000 C
  atom_frac 0.8337010000000000 0.0661570000000000 0.2106250000000000 C
  atom_frac 0.3316750000000001 0.5654600000000001 0.1968170000000000 C
  atom_frac 0.0554070000000000 0.2281800000000000 0.2194070000000000 C
  atom_frac 0.2253910000000001 0.9553350000000002 0.2214700000000000 C
  atom_frac 0.5577310000000000 0.7287070000000000 0.2373490000000000 C
  atom_frac 0.0105060000000000 0.7958150000000001 0.2620739999999999 C
  atom_frac 0.5081890000000000 0.2951180000000000 0.2441050000000000 C
  atom_frac 0.7274870000000000 0.4559020000000000 0.2352780000000000 C
  atom_frac 0.8404820000000001 0.0686510000000000 0.2600030000000000 C
  atom_frac 0.3384560000000000 0.5679530000000000 0.2461940000000000 C
  atom_frac 0.0621870000000000 0.2306740000000000 0.2687850000000000 C
  atom_frac 0.2321710000000000 0.9578280000000000 0.2708470000000000 C
  atom_frac 0.5645120000000000 0.7312010000000001 0.2867360000000000 C
  atom_frac 0.0172870000000000 0.7983090000000000 0.3114610000000000 C
  atom_frac 0.5149700000000000 0.2976120000000000 0.2934910000000000 C
  atom_frac 0.7342680000000000 0.4583960000000000 0.2846640000000000 C
  atom_frac 0.8472630000000000 0.0711450000000000 0.3093890000000000 C
  atom_frac 0.3452370000000000 0.5704470000000000 0.2955810000000000 C
  atom_frac 0.0689690000000000 0.2331680000000000 0.3181709999999999 C
  atom_frac 0.2389520000000000 0.9603220000000000 0.3202340000000000 C
  atom_frac 0.5712930000000001 0.7336940000000000 0.3361140000000000 C
  atom_frac 0.0240680000000000 0.8008030000000000 0.3608379999999999 C
  atom_frac 0.5217500000000000 0.3001060000000000 0.3428689999999999 C
  atom_frac 0.7410480000000002 0.4608900000000000 0.3340420000000000 C
  atom_frac 0.8540430000000000 0.0736380000000000 0.3587670000000000 C
  atom_frac 0.3520170000000001 0.5729410000000000 0.3449590000000000 C
  atom_frac 0.0757490000000000 0.2356620000000000 0.3675490000000000 C
  atom_frac 0.2457320000000000 0.9628160000000000 0.3696110000000000 C
  atom_frac 0.5780740000000000 0.7361880000000000 0.3855000000000000 C
  atom_frac 0.0308490000000000 0.8032970000000001 0.4102250000000000 C
  atom_frac 0.5285320000000000 0.3026000000000000 0.3922559999999999 C
  atom_frac 0.7478300000000000 0.4633840000000000 0.3834290000000000 C
  atom_frac 0.8608250000000001 0.0761320000000000 0.4081530000000000 C
  atom_frac 0.3587990000000000 0.5754350000000000 0.3943450000000000 C
  atom_frac 0.0825300000000000 0.2381560000000000 0.4169350000000000 C
  atom_frac 0.2525140000000000 0.9653100000000000 0.4189980000000000 C
  atom_frac 0.5848540000000000 0.7386819999999999 0.4348779999999999 C
  atom_frac 0.0376290000000000 0.8057910000000001 0.4596030000000000 C
  atom_frac 0.5353120000000000 0.3050930000000000 0.4416330000000000 C
  atom_frac 0.7546100000000000 0.4658780000000000 0.4328060000000000 C
  atom_frac 0.8676050000000001 0.0786260000000000 0.4575310000000000 C
  atom_frac 0.3655790000000000 0.5779290000000000 0.4437230000000000 C
  atom_frac 0.0893110000000000 0.2406500000000000 0.4663129999999999 C
  atom_frac 0.2592940000000000 0.9678040000000000 0.4683760000000000 C
  atom_frac 0.5916360000000001 0.7411759999999999 0.4842639999999999 C
  atom_frac 0.0444110000000000 0.8082850000000001 0.5089890000000000 C
  atom_frac 0.5420930000000000 0.3075870000000000 0.4910200000000000 C
  atom_frac 0.7613910000000002 0.4683720000000000 0.4821930000000000 C
  atom_frac 0.8743860000000000 0.0811200000000000 0.5069179999999999 C
  atom_frac 0.3723600000000001 0.5804230000000000 0.4931090000000000 C
  atom_frac 0.0960920000000000 0.2431440000000000 0.5157000000000000 C
  atom_frac 0.2660750000000000 0.9702980000000000 0.5177619999999999 C
  atom_frac 0.5984159999999999 0.7436700000000001 0.5336419999999999 C
  atom_frac 0.0511910000000000 0.8107790000000001 0.5583669999999999 C
  atom_frac 0.5488730000000002 0.3100810000000001 0.5403970000000000 C
  atom_frac 0.7681710000000000 0.4708650000000000 0.5315700000000000 C
  atom_frac 0.8811660000000000 0.0836140000000000 0.5562950000000000 C
  atom_frac 0.3791400000000000 0.5829170000000000 0.5424870000000001 C
  atom_frac 0.1028720000000000 0.2456370000000000 0.5650770000000001 C
  atom_frac 0.2728550000000000 0.9727920000000000 0.5671400000000000 C
  atom_frac 0.6051970000000000 0.7461640000000000 0.5830290000000000 C
  atom_frac 0.0579720000000000 0.8132730000000001 0.6077530000000000 C
  atom_frac 0.5556550000000001 0.3125750000000000 0.5897839999999999 C
  atom_frac 0.7749530000000000 0.4733590000000000 0.5809569999999999 C
  atom_frac 0.8879480000000000 0.0861080000000000 0.6056819999999999 C
  atom_frac 0.3859220000000000 0.5854110000000000 0.5918740000000000 C
  atom_frac 0.1096540000000000 0.2481320000000000 0.6144639999999999 C
  atom_frac 0.2796370000000000 0.9752860000000000 0.6165259999999999 C
  atom_frac 0.6119770000000000 0.7486580000000000 0.6324060000000000 C
  atom_frac 0.0647520000000000 0.8157660000000000 0.6571310000000000 C
  atom_frac 0.5624350000000000 0.3150690000000000 0.6391619999999999 C
  atom_frac 0.7817330000000001 0.4758530000000000 0.6303350000000000 C
  atom_frac 0.8947280000000000 0.0886020000000000 0.6550589999999999 C
  atom_frac 0.3927020000000001 0.5879040000000000 0.6412509999999999 C
  atom_frac 0.1164340000000000 0.2506250000000000 0.6638410000000000 C
  atom_frac 0.2864170000000000 0.9777790000000000 0.6659040000000001 C
  atom_frac 0.6187589999999999 0.7511520000000000 0.6817930000000000 C
  atom_frac 0.0715340000000000 0.8182600000000000 0.7065180000000000 C
  atom_frac 0.5692160000000001 0.3175630000000000 0.6885480000000000 C
  atom_frac 0.7885140000000000 0.4783470000000001 0.6797209999999999 C
  atom_frac 0.9015090000000001 0.0910960000000000 0.7044459999999999 C
  atom_frac 0.3994830000000000 0.5903980000000000 0.6906380000000000 C
  atom_frac 0.1232150000000000 0.2531190000000000 0.7132279999999999 C
  atom_frac 0.2931980000000001 0.9802740000000001 0.7152909999999999 C
  atom_frac 0.6255390000000001 0.7536450000000001 0.7311700000000000 C
  atom_frac 0.0783140000000000 0.8207540000000000 0.7558950000000000 C
  atom_frac 0.5759960000000000 0.3200570000000000 0.7379259999999999 C
  atom_frac 0.7952939999999999 0.4808410000000001 0.7290989999999999 C
  atom_frac 0.9082890000000001 0.0935890000000000 0.7538239999999999 C
  atom_frac 0.4062630000000000 0.5928920000000000 0.7400150000000000 C
  atom_frac 0.1299950000000000 0.2556130000000000 0.7626059999999999 C
  atom_frac 0.2999790000000000 0.9827669999999999 0.7646679999999999 C
  atom_frac 0.6323200000000000 0.7561400000000000 0.7805569999999998 C
  atom_frac 0.0850950000000000 0.8232480000000000 0.8052819999999999 C
  atom_frac 0.5827780000000000 0.3225510000000000 0.7873120000000000 C
  atom_frac 0.8020760000000001 0.4833350000000001 0.7784850000000000 C
  atom_frac 0.9150710000000000 0.0960840000000000 0.8032100000000000 C
  atom_frac 0.4130450000000001 0.5953860000000000 0.7894020000000000 C
  atom_frac 0.1367770000000000 0.2581070000000000 0.8119920000000000 C
  atom_frac 0.3067600000000000 0.9852610000000001 0.8140550000000000 C
  atom_frac 0.5517919999999999 0.5474640000000000 0.1852160000000000 N
  atom_frac 0.0022650000000000 0.9717810000000000 0.2099220000000000 N
  atom_frac 0.5006380000000000 0.4714240000000000 0.1974920000000000 N
  atom_frac 0.3843390000000000 0.7166630000000000 0.1923310000000000 N
  atom_frac 0.6679210000000000 0.3021040000000000 0.1903770000000000 N
  atom_frac 0.8879120000000000 0.2181420000000000 0.2150740000000000 N
  atom_frac 0.3940510000000000 0.4732210000000000 0.1811980000000000 N
  atom_frac 0.1594910000000000 0.0459580000000000 0.2058870000000000 N
  atom_frac 0.6583700000000000 0.5456370000000000 0.2015100000000000 N
  atom_frac 0.2267700000000000 0.8074270000000000 0.1910250000000000 N
  atom_frac 0.3281990000000000 0.7120240000000001 0.2157050000000000 N
  atom_frac 0.8255100000000001 0.2113600000000000 0.1916830000000000 N
  atom_frac 0.0568280000000000 0.0497110000000000 0.2221810000000000 N
  atom_frac 0.1712500000000000 0.8034000000000000 0.2170200000000000 N
  atom_frac 0.8995710000000001 0.9755239999999999 0.2262070000000000 N
  atom_frac 0.7309430000000000 0.3095080000000000 0.2163900000000000 N
  atom_frac 0.5585730000000000 0.5499570000000000 0.2345930000000000 N
  atom_frac 0.0090450000000000 0.9742750000000000 0.2593000000000000 N
  atom_frac 0.5074180000000000 0.4739170000000000 0.2468700000000000 N
  atom_frac 0.3911200000000000 0.7191570000000000 0.2417090000000000 N
  atom_frac 0.6747010000000000 0.3045980000000000 0.2397540000000000 N
  atom_frac 0.8946930000000001 0.2206350000000000 0.2644520000000000 N
  atom_frac 0.4008310000000000 0.4757150000000000 0.2305760000000000 N
  atom_frac 0.1662710000000000 0.0484510000000000 0.2552650000000000 N
  atom_frac 0.6651500000000000 0.5481300000000000 0.2508870000000000 N
  atom_frac 0.2335500000000000 0.8099210000000000 0.2404030000000000 N
  atom_frac 0.3349790000000000 0.7145170000000000 0.2650830000000000 N
  atom_frac 0.8322910000000000 0.2138540000000000 0.2410600000000000 N
  atom_frac 0.0636080000000000 0.0522040000000000 0.2715589999999999 N
  atom_frac 0.1780300000000000 0.8058940000000000 0.2663980000000000 N
  atom_frac 0.9063510000000001 0.9780180000000001 0.2755850000000000 N
  atom_frac 0.7377230000000001 0.3120020000000000 0.2657670000000000 N
  atom_frac 0.5653540000000000 0.5524520000000001 0.2839800000000000 N
  atom_frac 0.0158270000000000 0.9767690000000001 0.3086870000000000 N
  atom_frac 0.5142000000000000 0.4764120000000000 0.2962569999999999 N
  atom_frac 0.3979010000000000 0.7216510000000000 0.2910950000000000 N
  atom_frac 0.6814830000000001 0.3070920000000000 0.2891410000000000 N
  atom_frac 0.9014740000000000 0.2231290000000000 0.3138390000000000 N
  atom_frac 0.4076120000000000 0.4782090000000000 0.2799630000000000 N
  atom_frac 0.1730520000000000 0.0509450000000000 0.3046509999999999 N
  atom_frac 0.6719310000000001 0.5506240000000000 0.3002739999999999 N
  atom_frac 0.2403320000000000 0.8124150000000000 0.2897890000000000 N
  atom_frac 0.3417610000000000 0.7170110000000000 0.3144690000000000 N
  atom_frac 0.8390720000000000 0.2163480000000000 0.2904470000000000 N
  atom_frac 0.0703900000000000 0.0546980000000000 0.3209449999999999 N
  atom_frac 0.1848110000000000 0.8083880000000000 0.3157840000000000 N
  atom_frac 0.9131330000000000 0.9805120000000001 0.3249719999999999 N
  atom_frac 0.7445050000000000 0.3144960000000000 0.3151540000000000 N
  atom_frac 0.5721340000000001 0.5549450000000000 0.3333570000000000 N
  atom_frac 0.0226070000000000 0.9792630000000001 0.3580639999999999 N
  atom_frac 0.5209800000000001 0.4789050000000000 0.3456339999999999 N
  atom_frac 0.4046810000000000 0.7241450000000000 0.3404730000000000 N
  atom_frac 0.6882630000000001 0.3095860000000000 0.3385180000000000 N
  atom_frac 0.9082540000000000 0.2256230000000000 0.3632160000000000 N
  atom_frac 0.4143930000000001 0.4807020000000000 0.3293400000000000 N
  atom_frac 0.1798330000000000 0.0534390000000000 0.3540290000000000 N
  atom_frac 0.6787120000000000 0.5531180000000000 0.3496510000000000 N
  atom_frac 0.2471120000000000 0.8149090000000000 0.3391670000000000 N
  atom_frac 0.3485410000000000 0.7195050000000000 0.3638469999999999 N
  atom_frac 0.8458520000000002 0.2188420000000000 0.3398250000000000 N
  atom_frac 0.0771700000000000 0.0571920000000000 0.3703230000000000 N
  atom_frac 0.1915910000000000 0.8108810000000000 0.3651620000000000 N
  atom_frac 0.9199130000000000 0.9830050000000001 0.3743490000000000 N
  atom_frac 0.7512850000000000 0.3169900000000000 0.3645309999999999 N
  atom_frac 0.5789160000000000 0.5574390000000000 0.3827440000000000 N
  atom_frac 0.0293880000000000 0.9817570000000001 0.4074510000000000 N
  atom_frac 0.5277610000000000 0.4813990000000000 0.3950210000000000 N
  atom_frac 0.4114630000000000 0.7266390000000000 0.3898599999999999 N
  atom_frac 0.6950440000000000 0.3120800000000000 0.3879050000000000 N
  atom_frac 0.9150360000000001 0.2281170000000000 0.4126030000000000 N
  atom_frac 0.4211740000000000 0.4831960000000000 0.3787270000000000 N
  atom_frac 0.1866140000000000 0.0559330000000000 0.4034160000000000 N
  atom_frac 0.6854930000000000 0.5556120000000000 0.3990380000000000 N
  atom_frac 0.2538930000000000 0.8174030000000000 0.3885540000000000 N
  atom_frac 0.3553220000000000 0.7219989999999999 0.4132330000000000 N
  atom_frac 0.8526340000000000 0.2213360000000000 0.3892110000000000 N
  atom_frac 0.0839510000000000 0.0596860000000000 0.4197100000000000 N
  atom_frac 0.1983730000000000 0.8133750000000000 0.4145480000000000 N
  atom_frac 0.9266940000000001 0.9854990000000001 0.4237360000000000 N
  atom_frac 0.7580660000000001 0.3194840000000000 0.4139180000000000 N
  atom_frac 0.5856960000000001 0.5599330000000001 0.4321220000000000 N
  atom_frac 0.0361680000000000 0.9842510000000001 0.4568280000000000 N
  atom_frac 0.5345410000000000 0.4838930000000000 0.4443980000000000 N
  atom_frac 0.4182430000000000 0.7291320000000000 0.4392370000000000 N
  atom_frac 0.7018240000000002 0.3145740000000001 0.4372830000000000 N
  atom_frac 0.9218160000000001 0.2306110000000000 0.4619810000000000 N
  atom_frac 0.4279540000000001 0.4856900000000001 0.4281040000000000 N
  atom_frac 0.1933940000000000 0.0584270000000000 0.4527929999999999 N
  atom_frac 0.6922730000000001 0.5581060000000000 0.4484159999999999 N
  atom_frac 0.2606730000000000 0.8198960000000000 0.4379310000000000 N
  atom_frac 0.3621020000000000 0.7244930000000001 0.4626110000000000 N
  atom_frac 0.8594140000000000 0.2238300000000000 0.4385890000000000 N
  atom_frac 0.0907320000000000 0.0621800000000000 0.4690869999999999 N
  atom_frac 0.2051530000000000 0.8158690000000001 0.4639260000000000 N
  atom_frac 0.9334740000000000 0.9879930000000001 0.4731130000000000 N
  atom_frac 0.7648460000000001 0.3219770000000000 0.4632960000000000 N
  atom_frac 0.5924770000000001 0.5624270000000001 0.4815079999999999 N
  atom_frac 0.0429500000000000 0.9867450000000001 0.5062150000000000 N
  atom_frac 0.5413230000000000 0.4863870000000000 0.4937849999999999 N
  atom_frac 0.4250240000000000 0.7316260000000000 0.4886240000000000 N
  atom_frac 0.7086060000000000 0.3170680000000001 0.4866690000000000 N
  atom_frac 0.9285970000000000 0.2331050000000000 0.5113669999999999 N
  atom_frac 0.4347350000000000 0.4881840000000001 0.4774909999999999 N
  atom_frac 0.2001760000000000 0.0609210000000000 0.5021800000000000 N
  atom_frac 0.6990540000000001 0.5606000000000000 0.4978020000000000 N
  atom_frac 0.2674550000000000 0.8223900000000000 0.4873179999999999 N
  atom_frac 0.3688840000000000 0.7269870000000000 0.5119980000000000 N
  atom_frac 0.8661950000000002 0.2263240000000000 0.4879749999999999 N
  atom_frac 0.0975130000000000 0.0646740000000000 0.5184739999999999 N
  atom_frac 0.2119340000000001 0.8183630000000001 0.5133130000000000 N
  atom_frac 0.9402560000000001 0.9904870000000001 0.5225000000000000 N
  atom_frac 0.7716280000000000 0.3244710000000000 0.5126820000000000 N
  atom_frac 0.5992570000000000 0.5649210000000001 0.5308860000000000 N
  atom_frac 0.0497300000000000 0.9892380000000000 0.5555929999999999 N
  atom_frac 0.5481030000000000 0.4888810000000000 0.5431630000000000 N
  atom_frac 0.4318040000000001 0.7341200000000000 0.5380010000000000 N
  atom_frac 0.7153860000000000 0.3195610000000000 0.5360470000000001 N
  atom_frac 0.9353770000000001 0.2355990000000000 0.5607450000000000 N
  atom_frac 0.4415160000000000 0.4906780000000001 0.5268690000000000 N
  atom_frac 0.2069560000000000 0.0634150000000000 0.5515570000000000 N
  atom_frac 0.7058350000000000 0.5630940000000000 0.5471800000000000 N
  atom_frac 0.2742350000000000 0.8248840000000000 0.5366949999999999 N
  atom_frac 0.3756640000000000 0.7294800000000000 0.5613750000000000 N
  atom_frac 0.8729750000000001 0.2288170000000000 0.5373530000000000 N
  atom_frac 0.1042930000000000 0.0671680000000000 0.5678510000000000 N
  atom_frac 0.2187140000000000 0.8208570000000001 0.5626899999999999 N
  atom_frac 0.9470360000000001 0.9929810000000001 0.5718780000000000 N
  atom_frac 0.7784080000000000 0.3269650000000001 0.5620599999999999 N
  atom_frac 0.6060390000000000 0.5674150000000001 0.5802720000000000 N
  atom_frac 0.0565110000000000 0.9917330000000001 0.6049790000000000 N
  atom_frac 0.5548840000000000 0.4913750000000000 0.5925489999999999 N
  atom_frac 0.4385860000000000 0.7366140000000000 0.5873880000000000 N
  atom_frac 0.7221670000000001 0.3220550000000000 0.5854340000000000 N
  atom_frac 0.9421590000000000 0.2380930000000000 0.6101310000000000 N
  atom_frac 0.4482970000000001 0.4931720000000001 0.5762550000000000 N
  atom_frac 0.2137370000000000 0.0659090000000000 0.6009439999999999 N
  atom_frac 0.7126160000000001 0.5655880000000000 0.5965659999999999 N
  atom_frac 0.2810160000000000 0.8273779999999999 0.5860819999999999 N
  atom_frac 0.3824450000000000 0.7319750000000000 0.6107620000000000 N
  atom_frac 0.8797570000000000 0.2313110000000000 0.5867400000000000 N
  atom_frac 0.1110750000000000 0.0696620000000000 0.6172380000000000 N
  atom_frac 0.2254960000000000 0.8233510000000002 0.6120770000000000 N
  atom_frac 0.9538170000000000 0.9954750000000000 0.6212639999999999 N
  atom_frac 0.7851890000000001 0.3294590000000001 0.6114460000000000 N
  atom_frac 0.6128190000000000 0.5699080000000000 0.6296500000000000 N
  atom_frac 0.0632910000000000 0.9942260000000001 0.6543570000000000 N
  atom_frac 0.5616650000000000 0.4938680000000000 0.6419270000000000 N
  atom_frac 0.4453660000000000 0.7391080000000000 0.6367659999999999 N
  atom_frac 0.7289480000000000 0.3245490000000000 0.6348109999999999 N
  atom_frac 0.9489390000000000 0.2405860000000000 0.6595089999999999 N
  atom_frac 0.4550770000000000 0.4956660000000000 0.6256330000000000 N
  atom_frac 0.2205170000000000 0.0684020000000000 0.6503220000000000 N
  atom_frac 0.7193960000000001 0.5680810000000001 0.6459440000000000 N
  atom_frac 0.2877970000000001 0.8298720000000001 0.6354600000000000 N
  atom_frac 0.3892250000000000 0.7344680000000000 0.6601390000000000 N
  atom_frac 0.8865370000000000 0.2338050000000000 0.6361170000000000 N
  atom_frac 0.1178550000000000 0.0721550000000000 0.6666159999999999 N
  atom_frac 0.2322760000000000 0.8258450000000002 0.6614540000000000 N
  atom_frac 0.9605980000000000 0.9979690000000000 0.6706420000000000 N
  atom_frac 0.7919690000000000 0.3319530000000000 0.6608239999999999 N
  atom_frac 0.6196000000000000 0.5724030000000000 0.6790370000000000 N
  atom_frac 0.0700730000000000 0.9967200000000001 0.7037430000000000 N
  atom_frac 0.5684460000000000 0.4963630000000001 0.6913130000000000 N
  atom_frac 0.4521470000000000 0.7416020000000000 0.6861520000000000 N
  atom_frac 0.7357290000000000 0.3270430000000000 0.6841980000000000 N
  atom_frac 0.9557200000000001 0.2430810000000000 0.7088960000000000 N
  atom_frac 0.4618590000000000 0.4981600000000000 0.6750190000000000 N
  atom_frac 0.2272990000000000 0.0708970000000000 0.6997079999999999 N
  atom_frac 0.7261780000000000 0.5705750000000001 0.6953309999999999 N
  atom_frac 0.2945780000000000 0.8323660000000001 0.6848459999999998 N
  atom_frac 0.3960070000000000 0.7369620000000000 0.7095259999999999 N
  atom_frac 0.8933180000000001 0.2362990000000000 0.6855040000000000 N
  atom_frac 0.1246360000000000 0.0746490000000000 0.7160020000000000 N
  atom_frac 0.2390570000000000 0.8283390000000002 0.7108409999999999 N
  atom_frac 0.9673790000000001 0.0004630000000000 0.7200280000000000 N
  atom_frac 0.7987510000000001 0.3344470000000000 0.7102110000000000 N
  atom_frac 0.6263800000000000 0.5748960000000000 0.7284140000000000 N
  atom_frac 0.0768530000000000 0.9992140000000000 0.7531209999999999 N
  atom_frac 0.5752260000000001 0.4988560000000000 0.7406909999999999 N
  atom_frac 0.4589270000000000 0.7440960000000000 0.7355299999999999 N
  atom_frac 0.7425090000000000 0.3295370000000000 0.7335750000000000 N
  atom_frac 0.9625000000000001 0.2455740000000000 0.7582730000000000 N
  atom_frac 0.4686390000000000 0.5006530000000000 0.7243970000000000 N
  atom_frac 0.2340790000000000 0.0733900000000000 0.7490859999999999 N
  atom_frac 0.7329580000000000 0.5730690000000001 0.7447079999999999 N
  atom_frac 0.3013580000000000 0.8348600000000000 0.7342239999999999 N
  atom_frac 0.4027870000000001 0.7394560000000000 0.7589040000000000 N
  atom_frac 0.9000980000000001 0.2387930000000000 0.7348810000000000 N
  atom_frac 0.1314160000000000 0.0771430000000000 0.7653799999999999 N
  atom_frac 0.2458380000000000 0.8308320000000000 0.7602190000000000 N
  atom_frac 0.9741590000000000 0.0029560000000000 0.7694059999999999 N
  atom_frac 0.8055310000000001 0.3369410000000000 0.7595879999999999 N
  atom_frac 0.6331620000000001 0.5773900000000000 0.7778010000000000 N
  atom_frac 0.0836340000000000 0.0017080000000000 0.8025080000000000 N
  atom_frac 0.5820080000000001 0.5013500000000000 0.7900779999999999 N
  atom_frac 0.4657090000000000 0.7465900000000000 0.7849170000000000 N
  atom_frac 0.7492900000000001 0.3320310000000000 0.7829620000000000 N
  atom_frac 0.9692820000000000 0.2480680000000000 0.8076600000000000 N
  atom_frac 0.4754200000000000 0.5031480000000000 0.7737839999999999 N
  atom_frac 0.2408600000000000 0.0758840000000000 0.7984720000000000 N
  atom_frac 0.7397390000000001 0.5755630000000002 0.7940950000000000 N
  atom_frac 0.3081400000000001 0.8373540000000000 0.7836100000000000 N
  atom_frac 0.4095680000000000 0.7419500000000000 0.8082899999999998 N
  atom_frac 0.9068800000000001 0.2412870000000000 0.7842680000000000 N
  atom_frac 0.1381980000000000 0.0796370000000000 0.8147659999999999 N
  atom_frac 0.2526190000000000 0.8333270000000002 0.8096049999999999 N
  atom_frac 0.9809400000000000 0.0054510000000000 0.8187930000000000 N
  atom_frac 0.8123120000000000 0.3394350000000000 0.8089750000000000 N
  atom_frac 0.2624250000000000 0.5663610000000000 0.1802080000000000 O
  atom_frac 0.2913050000000000 0.9530080000000000 0.2048960000000000 O
  atom_frac 0.7899850000000002 0.4524860000000001 0.2024910000000000 O
  atom_frac 0.3972810000000001 0.3194280000000000 0.1791630000000000 O
  atom_frac 0.1556400000000000 0.1995140000000000 0.2038420000000000 O
  atom_frac 0.6551709999999999 0.6994300000000000 0.2035540000000000 O
  atom_frac 0.2624230000000000 0.9362940000000000 0.1874040000000000 O
  atom_frac 0.2914860000000000 0.5826020000000000 0.2121110000000000 O
  atom_frac 0.7898060000000001 0.0824430000000000 0.1952950000000000 O
  atom_frac 0.0621050000000000 0.7541490000000000 0.1938260000000000 O
  atom_frac 0.9902070000000001 0.2646690000000000 0.1888900000000000 O
  atom_frac 0.5656930000000000 0.2561780000000000 0.2136240000000000 O
  atom_frac 0.7677570000000000 0.0684840000000000 0.2271980000000000 O
  atom_frac 0.9033620000000001 0.8219470000000000 0.2282520000000000 O
  atom_frac 0.7676780000000002 0.4389400000000001 0.2199920000000000 O
  atom_frac 0.4934390000000000 0.7653330000000000 0.2184700000000000 O
  atom_frac 0.2692050000000000 0.5688540000000000 0.2295850000000000 O
  atom_frac 0.2980850000000000 0.9555010000000002 0.2542740000000000 O
  atom_frac 0.7967650000000001 0.4549800000000001 0.2518690000000000 O
  atom_frac 0.4040610000000000 0.3219220000000000 0.2285400000000000 O
  atom_frac 0.1624200000000000 0.2020080000000000 0.2532200000000000 O
  atom_frac 0.6619510000000000 0.7019240000000000 0.2529320000000000 O
  atom_frac 0.2692030000000000 0.9387880000000000 0.2367820000000000 O
  atom_frac 0.2982660000000000 0.5850959999999999 0.2614890000000000 O
  atom_frac 0.7965870000000000 0.0849360000000000 0.2446720000000000 O
  atom_frac 0.0688850000000000 0.7566420000000000 0.2432040000000000 O
  atom_frac 0.9969870000000001 0.2671630000000000 0.2382680000000000 O
  atom_frac 0.5724730000000000 0.2586720000000000 0.2630020000000000 O
  atom_frac 0.7745370000000001 0.0709780000000000 0.2765759999999999 O
  atom_frac 0.9101420000000001 0.8244410000000000 0.2776300000000000 O
  atom_frac 0.7744580000000000 0.4414340000000000 0.2693700000000000 O
  atom_frac 0.5002190000000001 0.7678270000000001 0.2678480000000000 O
  atom_frac 0.2759860000000000 0.5713490000000000 0.2789720000000000 O
  atom_frac 0.3048660000000000 0.9579950000000002 0.3036610000000000 O
  atom_frac 0.8035460000000000 0.4574740000000000 0.3012560000000000 O
  atom_frac 0.4108430000000000 0.3244160000000000 0.2779270000000000 O
  atom_frac 0.1692020000000000 0.2045020000000000 0.3026070000000000 O
  atom_frac 0.6687320000000001 0.7044180000000000 0.3023180000000000 O
  atom_frac 0.2759850000000000 0.9412820000000000 0.2861690000000000 O
  atom_frac 0.3050470000000000 0.5875899999999999 0.3108750000000000 O
  atom_frac 0.8033680000000000 0.0874310000000000 0.2940590000000000 O
  atom_frac 0.0756660000000000 0.7591360000000000 0.2925910000000000 O
  atom_frac 0.0037690000000000 0.2696570000000000 0.2876550000000000 O
  atom_frac 0.5792550000000001 0.2611660000000000 0.3123890000000000 O
  atom_frac 0.7813190000000000 0.0734720000000000 0.3259620000000000 O
  atom_frac 0.9169230000000000 0.8269350000000000 0.3270160000000000 O
  atom_frac 0.7812390000000000 0.4439280000000000 0.3187570000000000 O
  atom_frac 0.5070000000000000 0.7703210000000001 0.3172340000000000 O
  atom_frac 0.2827660000000000 0.5738420000000000 0.3283489999999999 O
  atom_frac 0.3116470000000000 0.9604890000000001 0.3530380000000000 O
  atom_frac 0.8103260000000000 0.4599680000000000 0.3506329999999999 O
  atom_frac 0.4176230000000001 0.3269090000000000 0.3273039999999999 O
  atom_frac 0.1759820000000000 0.2069960000000000 0.3519840000000000 O
  atom_frac 0.6755120000000000 0.7069110000000000 0.3516960000000000 O
  atom_frac 0.2827650000000000 0.9437759999999999 0.3355460000000000 O
  atom_frac 0.3118270000000001 0.5900830000000001 0.3602529999999999 O
  atom_frac 0.8101480000000000 0.0899240000000000 0.3434360000000000 O
  atom_frac 0.0824470000000000 0.7616300000000000 0.3419679999999999 O
  atom_frac 0.0105490000000000 0.2721510000000000 0.3370319999999999 O
  atom_frac 0.5860350000000000 0.2636600000000000 0.3617660000000000 O
  atom_frac 0.7880990000000000 0.0759650000000000 0.3753400000000000 O
  atom_frac 0.9237040000000001 0.8294290000000000 0.3763940000000000 O
  atom_frac 0.7880190000000001 0.4464210000000001 0.3681340000000000 O
  atom_frac 0.5137800000000000 0.7728150000000001 0.3666119999999999 O
  atom_frac 0.2895480000000000 0.5763360000000000 0.3777360000000000 O
  atom_frac 0.3184280000000000 0.9629830000000001 0.4024250000000000 O
  atom_frac 0.8171080000000001 0.4624620000000000 0.4000199999999999 O
  atom_frac 0.4244040000000000 0.3294040000000000 0.3766910000000000 O
  atom_frac 0.1827630000000000 0.2094900000000000 0.4013709999999999 O
  atom_frac 0.6822940000000000 0.7094050000000000 0.4010830000000000 O
  atom_frac 0.2895460000000000 0.9462699999999999 0.3849330000000000 O
  atom_frac 0.3186090000000000 0.5925780000000000 0.4096399999999999 O
  atom_frac 0.8169300000000000 0.0924180000000000 0.3928230000000000 O
  atom_frac 0.0892280000000000 0.7641240000000000 0.3913550000000000 O
  atom_frac 0.0173300000000000 0.2746450000000000 0.3864190000000000 O
  atom_frac 0.5928160000000000 0.2661540000000000 0.4111530000000000 O
  atom_frac 0.7948800000000001 0.0784590000000000 0.4247270000000000 O
  atom_frac 0.9304850000000000 0.8319230000000000 0.4257799999999999 O
  atom_frac 0.7948010000000000 0.4489160000000000 0.4175210000000000 O
  atom_frac 0.5205620000000001 0.7753090000000001 0.4159990000000000 O
  atom_frac 0.2963280000000000 0.5788300000000000 0.4271139999999999 O
  atom_frac 0.3252080000000000 0.9654770000000001 0.4518019999999999 O
  atom_frac 0.8238880000000000 0.4649550000000000 0.4493970000000000 O
  atom_frac 0.4311850000000000 0.3318970000000000 0.4260689999999999 O
  atom_frac 0.1895430000000000 0.2119840000000000 0.4507490000000000 O
  atom_frac 0.6890740000000001 0.7118989999999999 0.4504600000000000 O
  atom_frac 0.2963260000000000 0.9487630000000000 0.4343099999999999 O
  atom_frac 0.3253890000000000 0.5950710000000001 0.4590170000000000 O
[...]
  |   Hirshfeld dipole vector :     -0.00693970       0.03317819       0.01139449
  |   Hirshfeld dipole moment :      0.03576012
  |   Hirshfeld second moments:      0.01763986      -0.00013311      -0.01404671
  |                                 -0.00013311       0.06050821       0.01241367
  |                                 -0.01404671       0.01241367       0.04192183
  ----------------------------------------------------------------------
  | Atom   717: O
  |   Hirshfeld charge        :     -0.13995106
  |   Free atom volume        :     23.60491416
  |   Hirshfeld volume        :     21.63843470
  |   Hirshfeld dipole vector :      0.00732459      -0.03284641       0.01086754
  |   Hirshfeld dipole moment :      0.03536439
  |   Hirshfeld second moments:      0.01833033      -0.00020277       0.01413334
  |                                 -0.00020277       0.06092410      -0.01232634
  |                                  0.01413334      -0.01232634       0.04247877
  ----------------------------------------------------------------------
  | Atom   718: O
  |   Hirshfeld charge        :     -0.14118625
  |   Free atom volume        :     23.60491416
  |   Hirshfeld volume        :     21.65637987
  |   Hirshfeld dipole vector :      0.00697323      -0.03319395      -0.01137309
  |   Hirshfeld dipole moment :      0.03577445
  |   Hirshfeld second moments:      0.01739917      -0.00014084      -0.01399473
  |                                 -0.00014084       0.06042858       0.01254368
  |                                 -0.01399473       0.01254368       0.04180537
  ----------------------------------------------------------------------
  | Atom   719: O
  |   Hirshfeld charge        :     -0.15408253
  |   Free atom volume        :     23.60491416
  |   Hirshfeld volume        :     21.86203013
  |   Hirshfeld dipole vector :      0.02022959      -0.03378288       0.02440348
  |   Hirshfeld dipole moment :      0.04632547
  |   Hirshfeld second moments:     -0.00896165       0.00828778       0.00339879
  |                                  0.00828778       0.04899903      -0.00367531
  |                                  0.00339879      -0.00367531       0.05800392
  ----------------------------------------------------------------------
  | Atom   720: O
  |   Hirshfeld charge        :     -0.15434235
  |   Free atom volume        :     23.60491416
  |   Hirshfeld volume        :     21.83244860
  |   Hirshfeld dipole vector :     -0.01950543       0.03408625       0.02423181
  |   Hirshfeld dipole moment :      0.04614667
  |   Hirshfeld second moments:     -0.00887903       0.00820248      -0.00310457
  |                                  0.00820248       0.04938149       0.00350746
  |                                 -0.00310457       0.00350746       0.05929703
  ----------------------------------------------------------------------
  | Atom   721: O
  |   Hirshfeld charge        :     -0.15388571
  |   Free atom volume        :     23.60491416
  |   Hirshfeld volume        :     21.85801694
  |   Hirshfeld dipole vector :     -0.02016449       0.03383321      -0.02446266
  |   Hirshfeld dipole moment :      0.04636502
  |   Hirshfeld second moments:     -0.00876178       0.00824982       0.00338700
  |                                  0.00824982       0.04916737      -0.00350614
  |                                  0.00338700      -0.00350614       0.05812611
  ----------------------------------------------------------------------
  | Atom   722: O
  |   Hirshfeld charge        :     -0.16742522
  |   Free atom volume        :     23.60491416
  |   Hirshfeld volume        :     21.91844647
  |   Hirshfeld dipole vector :      0.04037996      -0.00482327      -0.02999981
  |   Hirshfeld dipole moment :      0.05053507
  |   Hirshfeld second moments:      0.04422024       0.02773221      -0.00887182
  |                                  0.02773221       0.01151130       0.01342720
  |                                 -0.00887182       0.01342720       0.03251259
  ----------------------------------------------------------------------
  | Atom   723: O
  |   Hirshfeld charge        :     -0.16710211
  |   Free atom volume        :     23.60491416
  |   Hirshfeld volume        :     21.91298584
  |   Hirshfeld dipole vector :     -0.04037961       0.00470212       0.02996546
  |   Hirshfeld dipole moment :      0.05050298
  |   Hirshfeld second moments:      0.04444910       0.02766171      -0.00873542
  |                                  0.02766171       0.01171547       0.01352050
  |                                 -0.00873542       0.01352050       0.03271495
  ----------------------------------------------------------------------
  | Atom   724: O
  |   Hirshfeld charge        :     -0.17042839
  |   Free atom volume        :     23.60491416
  |   Hirshfeld volume        :     21.90115353
  |   Hirshfeld dipole vector :      0.04116088      -0.00465137       0.03030349
  |   Hirshfeld dipole moment :      0.05132402
  |   Hirshfeld second moments:      0.04433630       0.02740796       0.00819862
  |                                  0.02740796       0.01063533      -0.01320801
  |                                  0.00819862      -0.01320801       0.03287263
  ----------------------------------------------------------------------
  | Atom   725: O
  |   Hirshfeld charge        :     -0.17885433
  |   Free atom volume        :     23.60491416
  |   Hirshfeld volume        :     22.30591160
  |   Hirshfeld dipole vector :      0.04743215      -0.01916349      -0.02798633
  |   Hirshfeld dipole moment :      0.05831194
  |   Hirshfeld second moments:      0.04352251      -0.01863303       0.01408399
  |                                 -0.01863303       0.00326394       0.02284088
  |                                  0.01408399       0.02284088       0.00170345
  ----------------------------------------------------------------------
  | Atom   726: O
  |   Hirshfeld charge        :     -0.16436754
  |   Free atom volume        :     23.60491416
  |   Hirshfeld volume        :     22.31178584
  |   Hirshfeld dipole vector :      0.00948144       0.04862105      -0.03594814
  |   Hirshfeld dipole moment :      0.06120599
  |   Hirshfeld second moments:     -0.00261310      -0.00374320       0.03035267
  |                                 -0.00374320       0.04379540      -0.00144664
  |                                  0.03035267      -0.00144664       0.01362438
  ----------------------------------------------------------------------
  | Atom   727: O
  |   Hirshfeld charge        :     -0.16032018
  |   Free atom volume        :     23.60491416
  |   Hirshfeld volume        :     22.12486839
  |   Hirshfeld dipole vector :      0.02316507      -0.03266664      -0.03948459
  |   Hirshfeld dipole moment :      0.05623844
  |   Hirshfeld second moments:     -0.01276213       0.01094633       0.00039144
  |                                  0.01094633       0.04700395       0.00172587
  |                                  0.00039144       0.00172587       0.03815101
  ----------------------------------------------------------------------
  | Atom   728: O
  |   Hirshfeld charge        :     -0.16133372
  |   Free atom volume        :     23.60491416
  |   Hirshfeld volume        :     21.87386925
  |   Hirshfeld dipole vector :     -0.04001869       0.00598612      -0.03108063
  |   Hirshfeld dipole moment :      0.05102289
  |   Hirshfeld second moments:      0.04805752       0.03028548       0.00434389
  |                                  0.03028548       0.01297769      -0.01367273
  |                                  0.00434389      -0.01367273       0.03190313
  ----------------------------------------------------------------------

  Converging periodic supercell size for vdw calculation.
  Convergence accuracy (and time!) can be adjusted using the vdw_convergence_threshold keyword.
  | Shell number:     1
  |   VDW energy change:  -0.235135E+02 eV.
  |   Not converged.
  | Shell number:     2
  |   VDW energy change:  -0.555426E+00 eV.
  |   Not converged.
  | Shell number:     3
  |   VDW energy change:  -0.797858E-01 eV.
  |   Not converged.
  | Shell number:     4
  |   VDW energy change:  -0.224797E-01 eV.
  |   Not converged.
  | Shell number:     5
  |   VDW energy change:  -0.862842E-02 eV.
  |   Not converged.
  | Shell number:     6
  |   VDW energy change:  -0.397497E-02 eV.
  |   Not converged.
  | Shell number:     7
  |   VDW energy change:  -0.206842E-02 eV.
  |   Not converged.
  | Shell number:     8
  |   VDW energy change:  -0.117492E-02 eV.
  |   Not converged.
  | Shell number:     9
  |   VDW energy change:  -0.713224E-03 eV.
  |   Not converged.
  | Shell number:    10
  |   VDW energy change:  -0.456187E-03 eV.
  |   Not converged.
  | Shell number:    11
  |   VDW energy change:  -0.304406E-03 eV.
  |   Not converged.
  | Shell number:    12
  |   VDW energy change:  -0.210381E-03 eV.
  |   Not converged.
  | Shell number:    13
  |   VDW energy change:  -0.149772E-03 eV.
  |   Not converged.
  | Shell number:    14
  |   VDW energy change:  -0.109365E-03 eV.
  |   Not converged.
  | Shell number:    15
  |   VDW energy change:  -0.816379E-04 eV.
  |   Not converged.
  | Shell number:    16
  |   VDW energy change:  -0.621275E-04 eV.
  |   Not converged.
  | Shell number:    17
  |   VDW energy change:  -0.480927E-04 eV.
  |   Not converged.
  | Shell number:    18
  |   VDW energy change:  -0.377976E-04 eV.
  |   Not converged.
  | Shell number:    19
  |   VDW energy change:  -0.301128E-04 eV.
  |   Not converged.
  | Shell number:    20
  |   VDW energy change:  -0.242855E-04 eV.
  |   Not converged.
  | Shell number:    21
  |   VDW energy change:  -0.198038E-04 eV.
  |   Not converged.
  | Shell number:    22
  |   VDW energy change:  -0.163121E-04 eV.
  |   Not converged.
  | Shell number:    23
  |   VDW energy change:  -0.135595E-04 eV.
  |   Not converged.
  | Shell number:    24
  |   VDW energy change:  -0.113662E-04 eV.
  |   Not converged.
  | Shell number:    25
  |   VDW energy change:  -0.960095E-05 eV.
  |   Not converged.
  | Shell number:    26
  |   VDW energy change:  -0.816730E-05 eV.
  |   Not converged.
  | Shell number:    27
  |   VDW energy change:  -0.699305E-05 eV.
  |   Converged.

  Total energy components:
  | Sum of eigenvalues            :      -17591.95012454 Ha     -478701.31894363 eV
  | XC energy correction          :       -3832.82821236 Ha     -104296.56220900 eV
  | XC potential correction       :        4928.46840507 Ha      134110.44876645 eV
  | Free-atom electrostatic energy:      -14397.23270495 Ha     -391768.63487031 eV
  | Hartree energy correction     :        -230.51182138 Ha       -6272.54580336 eV
  | vdW energy correction         :          -1.63465847 Ha         -44.48132014 eV
  | Entropy correction            :           0.00000000 Ha           0.00000000 eV
  | ---------------------------
  | Total energy                  :      -31125.68911663 Ha     -846973.09437999 eV
  | Total energy, T -> 0          :      -31125.68911663 Ha     -846973.09437999 eV  <-- do not rely on this value for anything but (periodic) metals
  | Electronic free energy        :      -31125.68911663 Ha     -846973.09437999 eV

  Derived energy quantities:
  | Kinetic energy                :       31073.89058267 Ha      845563.58455588 eV
  | Electrostatic energy          :      -58365.11682846 Ha    -1588195.63540673 eV
  | Energy correction for multipole
  | error in Hartree potential    :           5.44838764 Ha         148.25817086 eV
  | Sum of eigenvalues per atom                           :        -657.55675679 eV
  | Total energy (T->0) per atom                          :       -1163.42458019 eV  <-- do not rely on this value for anything but (periodic) metals
  | Electronic free energy per atom                       :       -1163.42458019 eV
  Timings for VdW correction (Tkatchenko-Scheffler 2009 or later):
  | CPU time:       87.678 s, Wall clock time:       87.671 s.

  Energy and forces in a compact form:
  | Total energy uncorrected      :         -0.846973094379994E+06 eV
  | Total energy corrected        :         -0.846973094379994E+06 eV  <-- do not rely on this value for anything but (periodic) metals
  | Electronic free energy        :         -0.846973094379994E+06 eV

  ------------------------------------ 
  Start decomposition of the XC Energy 
  ------------------------------------ 
  X and C from original XC functional choice 
  Hartree-Fock Energy :          0.000000000 Ha              0.000000000 eV
  X Energy            :      -3695.796442983 Ha        -100567.738043741 eV
  C Energy            :       -137.031769378 Ha          -3728.824165256 eV
  Total XC Energy     :      -3832.828212361 Ha        -104296.562208997 eV
  ------------------------------------ 
  LDA X and C from self-consistent density 
  X Energy LDA        :      -3362.086653547 Ha         -91487.032651998 eV
  C Energy LDA        :       -268.106846516 Ha          -7295.558487635 eV
  ------------------------------------ 
  End decomposition of the XC Energy 
  ------------------------------------ 

------------------------------------------------------------

------------------------------------------------------------------------------
  Final output of selected total energy values:

  The following output summarizes some interesting total energy values
  at the end of a run (AFTER all relaxation, molecular dynamics, etc.).

  | Total energy of the DFT / Hartree-Fock s.c.f. calculation      :        -846973.094379994 eV
  | Final zero-broadening corrected energy (caution - metals only) :        -846973.094379994 eV
  | For reference only, the value of 1 Hartree used in FHI-aims is :             27.211384500 eV

  Before relying on these values, please be sure to understand exactly which
  total energy value is referred to by a given number. Different objects may
  all carry the same name 'total energy'. Definitions:

  Total energy of the DFT / Hartree-Fock s.c.f. calculation:
  | Note that this energy does not include ANY quantities calculated after the
  | s.c.f. cycle, in particular not ANY RPA, MP2, etc. many-body perturbation terms.

  Final zero-broadening corrected energy:
  | For metallic systems only, a broadening of the occupation numbers at the Fermi
  | level can be extrapolated back to zero broadening by an electron-gas inspired
  | formula. For all systems that are not real metals, this value can be
  | meaningless and should be avoided.

------------------------------------------------------------------------------
  Methods described in the following list of references were used in this FHI-aims run.
  If you publish the results, please make sure to cite these reference if they apply.
  FHI-aims is an academic code, and for our developers (often, Ph.D. students
  and postdocs), scientific credit in the community is essential.
  Thank you for helping us!

  For any use of FHI-aims, please cite:

    Volker Blum, Ralf Gehrke, Felix Hanke, Paula Havu, Ville Havu,
    Xinguo Ren, Karsten Reuter, and Matthias Scheffler
    'Ab initio molecular simulations with numeric atom-centered orbitals'
    Computer Physics Communications 180, 2175-2196 (2009)
    http://dx.doi.org/10.1016/j.cpc.2009.06.022


  The scalable eigensolver library ELPA was used in your run.
  ELPA is essential especially for large systems on hundreds or thousands of CPUs.
  For ELPA, please cite:

    Andreas Marek, Volker Blum, Rainer Johanni, Ville Havu, Bruno Lang,
    Thomas Auckenthaler, Alexander Heinecke, Hans-Joachim Bungartz, and Hermann Lederer,
    'The ELPA Library - Scalable Parallel Eigenvalue Solutions
    for Electronic Structure Theory and Computational Science'
    The Journal of Physics: Condensed Matter 26, 213201 (2014).
    http://dx.doi.org/10.1088/0953-8984/26/21/213201


  The ELSI infrastructure was used in your run to solve the Kohn-Sham electronic structure.
  Please check out http://elsi-interchange.org to learn more.
  If scalability is important for your project, please acknowledge ELSI by citing:

    V. W-z. Yu, F. Corsetti, A. Garcia, W. P. Huhn, M. Jacquelin, W. Jia,
    B. Lange, L. Lin, J. Lu, W. Mi, A. Seifitokaldani, A. Vazquez-Mayagoitia,
    C. Yang, H. Yang, and V. Blum
    'ELSI: A unified software interface for Kohn-Sham electronic structure solvers'
    Computer Physics Communications 222, 267-285 (2018).
    http://dx.doi.org/10.1016/j.cpc.2017.09.007


  For the real-space grid partitioning and parallelization used in this calculation, please cite:

    Ville Havu, Volker Blum, Paula Havu, and Matthias Scheffler,
    'Efficient O(N) integration for all-electron electronic structure calculation'
    'using numerically tabulated basis functions'
    Journal of Computational Physics 228, 8367-8379 (2009).
    http://dx.doi.org/10.1016/j.jcp.2009.08.008

  Of course, there are many other important community references, e.g., those cited in the
  above references. Our list is limited to references that describe implementations in the
  FHI-aims code. The reason is purely practical (length of this list) - please credit others as well.

------------------------------------------------------------
          Leaving FHI-aims.
          Date     :  20200218, Time     :  031046.126

          Computational steps:
          | Number of self-consistency cycles          :           27
          | Number of SCF (re)initializations          :            1

          Detailed time accounting                     :  max(cpu_time)    wall_clock(cpu1)
          | Total time                                 :     3798.282 s        3799.216 s
          | Preparation time                           :        0.803 s           0.786 s
          | Boundary condition initalization           :       48.181 s          48.181 s
          | Grid partitioning                          :       11.084 s          11.085 s
          | Preloading free-atom quantities on grid    :        0.043 s           0.043 s
          | Free-atom superposition energy             :        5.551 s           5.551 s
          | Total time for integrations                :       87.294 s          87.297 s
          | Total time for solution of K.-S. equations :     1682.848 s        1682.909 s
          | Total time for density update              :      142.834 s         142.424 s
          | Total time for mixing & preconditioning    :     1034.957 s        1035.004 s
          | Total time for Hartree multipole update    :       30.716 s          30.719 s
          | Total time for Hartree multipole sum       :      646.505 s         646.530 s
          | Total time for total energy evaluation     :        0.058 s           0.065 s
          | Total time for scaled ZORA corrections     :        0.000 s           0.000 s
          | Total time for vdW correction              :       87.678 s          87.671 s

          Partial memory accounting:
          | Residual value for overall tracked memory usage across tasks :      382785.950 MB (should be 0.000 MB)
          |
          | Largest tracked array allocation (+KS_eigenvector_complex):
          |   Minimum:      553.779 MB (on task   1)
          |   Maximum:      553.779 MB (on task   1)
          |   Average:      553.779 MB
          |
          | Because the residual tracked memory usage was not zero, the peak value for overall
          | tracked memory usage was not output, as it is probably incorrect.  This is likely due
          | to a missing aims_deallocate statement in the source code, which should be otherwise
          | harmless.
          |
          Note:  These values currently only include a subset of arrays which are explicitly tracked.
          The "true" memory usage will be greater.

          Have a nice day.
------------------------------------------------------------
