  MPI-parallelism will be employed.
------------------------------------------------------------
          Invoking FHI-aims ...
          Version 180424
          Compiled on 2018/04/28 at 19:12:01 on host coe.psc.edu.

          When using FHI-aims, please cite the following reference:

          Volker Blum, Ralf Gehrke, Felix Hanke, Paula Havu,
          Ville Havu, Xinguo Ren, Karsten Reuter, and Matthias Scheffler,
          'Ab Initio Molecular Simulations with Numeric Atom-Centered Orbitals',
          Computer Physics Communications 180, 2175-2196 (2009)

          For any questions about FHI-aims, please visit the aimsclub website
          with its forums and wiki. Contributions to both the forums and the
          wiki are warmly encouraged - they are for you, and everyone is welcome there.

------------------------------------------------------------



  Date     :  20200214, Time     :  043618.045
  Time zero on CPU 1             :   0.420110000000000E-01  s.
  Internal wall clock time zero  :           350886978.045  s.

  FHI-aims created a unique identifier for this run for later identification
  aims_uuid : B69963DB-7D2D-434B-AA0C-228104731A44

  Using       56 parallel tasks.
  Task        0 on host d035 reporting.
  Task        1 on host d035 reporting.
  Task        2 on host d035 reporting.
  Task        3 on host d035 reporting.
  Task        4 on host d035 reporting.
  Task        5 on host d035 reporting.
  Task        6 on host d035 reporting.
  Task        7 on host d035 reporting.
  Task        8 on host d035 reporting.
  Task        9 on host d035 reporting.
  Task       10 on host d035 reporting.
  Task       11 on host d035 reporting.
  Task       12 on host d035 reporting.
  Task       13 on host d035 reporting.
  Task       14 on host d035 reporting.
  Task       15 on host d035 reporting.
  Task       16 on host d035 reporting.
  Task       17 on host d035 reporting.
  Task       18 on host d035 reporting.
  Task       19 on host d035 reporting.
  Task       20 on host d035 reporting.
  Task       21 on host d035 reporting.
  Task       22 on host d035 reporting.
  Task       23 on host d035 reporting.
  Task       24 on host d035 reporting.
  Task       25 on host d035 reporting.
  Task       26 on host d035 reporting.
  Task       27 on host d035 reporting.
  Task       28 on host d035 reporting.
  Task       29 on host d035 reporting.
  Task       30 on host d035 reporting.
  Task       31 on host d035 reporting.
  Task       32 on host d035 reporting.
  Task       33 on host d035 reporting.
  Task       34 on host d035 reporting.
  Task       35 on host d035 reporting.
  Task       36 on host d035 reporting.
  Task       37 on host d035 reporting.
  Task       38 on host d035 reporting.
  Task       39 on host d035 reporting.
  Task       40 on host d035 reporting.
  Task       41 on host d035 reporting.
  Task       42 on host d035 reporting.
  Task       43 on host d035 reporting.
  Task       44 on host d035 reporting.
  Task       45 on host d035 reporting.
  Task       46 on host d035 reporting.
  Task       47 on host d035 reporting.
  Task       48 on host d035 reporting.
  Task       49 on host d035 reporting.
  Task       50 on host d035 reporting.
  Task       51 on host d035 reporting.
  Task       52 on host d035 reporting.
  Task       53 on host d035 reporting.
  Task       54 on host d035 reporting.
  Task       55 on host d035 reporting.

  Performing system and environment tests:
  *** Environment variable OMP_NUM_THREADS is not set
  *** For performance reasons you might want to set it to 1
  | Stacksize not measured: no C compiler
  | Checking for scalapack...
  | Testing pdtran()...
  | All pdtran() tests passed.

  Obtaining array dimensions for all initial allocations:
  
  -----------------------------------------------------------------------
  Parsing control.in (first pass over file, find array dimensions only).
  The contents of control.in will be repeated verbatim below
  unless switched off by setting 'verbatim_writeout .false.' .
  in the first line of control.in .
  -----------------------------------------------------------------------
  
  #===============================================================================
  # FHI-aims file: ./control.in
  # Created using the Atomic Simulation Environment (ASE)
  # Tue Feb 11 11:37:56 2020
  #===============================================================================
  xc                                 pbe
  spin                               none
  relativistic                       atomic_zora scalar
  charge                             0
  occupation_type                    gaussian 0.01
  mixer                              pulay
  n_max_pulay                        8
  charge_mix_param                   0.02
  sc_accuracy_rho                    0.0001
  sc_accuracy_eev                    0.01
  sc_accuracy_etot                   1e-06
  sc_iter_limit                      10000
  KS_method                          parallel
  empty_states                       6
  basis_threshold                    1e-05
  k_grid                             4 4 1
  vdw_correction_hirshfeld
  use_dipole_correction              .true.
  #===============================================================================
  
  ################################################################################
  #
  #  FHI-aims code project
  #  VB, Fritz-Haber Institut, 2009
  #
  #  Suggested "light" defaults for H atom (to be pasted into control.in file)
  #  Be sure to double-check any results obtained with these settings for post-processing,
  #  e.g., with the "tight" defaults and larger basis sets.
  #
  ################################################################################
    species        H
  #     global species definitions
      nucleus             1
      mass                1.00794
  #
      l_hartree           4
  #
      cut_pot             3.5  1.5  1.0
      basis_dep_cutoff    1e-4
  #
      radial_base         24 5.0
      radial_multiplier   1
      angular_grids       specified
        division   0.2421   50
        division   0.3822  110
        division   0.4799  194
        division   0.5341  302
  #      division   0.5626  434
  #      division   0.5922  590
  #      division   0.6542  770
  #      division   0.6868 1202
  #      outer_grid  770
        outer_grid  302
  ################################################################################
  #
  #  Definition of "minimal" basis
  #
  ################################################################################
  #     valence basis states
      valence      1  s   1.
  #     ion occupancy
      ion_occ      1  s   0.5
  ################################################################################
  #
  #  Suggested additional basis functions. For production calculations,
  #  uncomment them one after another (the most important basis functions are
  #  listed first).
  #
  #  Basis constructed for dimers: 0.5 A, 0.7 A, 1.0 A, 1.5 A, 2.5 A
  #
  ################################################################################
  #  "First tier" - improvements: -1014.90 meV to -62.69 meV
       hydro 2 s 2.1
       hydro 2 p 3.5
  #  "Second tier" - improvements: -12.89 meV to -1.83 meV
  #     hydro 1 s 0.85
  #     hydro 2 p 3.7
  #     hydro 2 s 1.2
  #     hydro 3 d 7
  #  "Third tier" - improvements: -0.25 meV to -0.12 meV
  #     hydro 4 f 11.2
  #     hydro 3 p 4.8
  #     hydro 4 d 9
  #     hydro 3 s 3.2
  ################################################################################
  #
  #  FHI-aims code project
  #  VB, Fritz-Haber Institut, 2009
  #
  #  Suggested "light" defaults for C atom (to be pasted into control.in file)
  #  Be sure to double-check any results obtained with these settings for post-processing,
  #  e.g., with the "tight" defaults and larger basis sets.
  #
  ################################################################################
    species        C
  #     global species definitions
      nucleus             6
      mass                12.0107
  #
      l_hartree           4
  #
      cut_pot             3.5  1.5  1.0
      basis_dep_cutoff    1e-4
  #
      radial_base         34 5.0
      radial_multiplier   1
      angular_grids specified
        division   0.3326   50
        division   0.5710  110
        division   0.7727  194
        division   0.8772  302
  #      division   0.9334  434
  #      division   0.9625  590
  #      division   0.9924  770
  #      division   1.0230  974
  #      division   1.4589 1202
  #     outer_grid  974
       outer_grid 302
  ################################################################################
  #
  #  Definition of "minimal" basis
  #
  ################################################################################
  #     valence basis states
      valence      2  s   2.
      valence      2  p   2.
  #     ion occupancy
      ion_occ      2  s   1.
      ion_occ      2  p   1.
  ################################################################################
  #
  #  Suggested additional basis functions. For production calculations,
  #  uncomment them one after another (the most important basis functions are
  #  listed first).
  #
  #  Constructed for dimers: 1.0 A, 1.25 A, 1.5 A, 2.0 A, 3.0 A
  #
  ################################################################################
  #  "First tier" - improvements: -1214.57 meV to -155.61 meV
       hydro 2 p 1.7
       hydro 3 d 6
       hydro 2 s 4.9
  #  "Second tier" - improvements: -67.75 meV to -5.23 meV
  #     hydro 4 f 9.8
  #     hydro 3 p 5.2
  #     hydro 3 s 4.3
  #     hydro 5 g 14.4
  #     hydro 3 d 6.2
  #  "Third tier" - improvements: -2.43 meV to -0.60 meV
  #     hydro 2 p 5.6
  #     hydro 2 s 1.4
  #     hydro 3 d 4.9
  #     hydro 4 f 11.2
  #  "Fourth tier" - improvements: -0.39 meV to -0.18 meV
  #     hydro 2 p 2.1
  #     hydro 5 g 16.4
  #     hydro 4 d 13.2
  #     hydro 3 s 13.6
  #     hydro 4 f 17.6
  #  Further basis functions - improvements: -0.08 meV and below
  #     hydro 3 s 2
  #     hydro 3 p 6
  #     hydro 4 d 20
  ################################################################################
  #
  #  FHI-aims code project
  #  VB, Fritz-Haber Institut, 2009
  #
  #  Suggested "light" defaults for N atom (to be pasted into control.in file)
  #  Be sure to double-check any results obtained with these settings for post-processing,
  #  e.g., with the "tight" defaults and larger basis sets.
  #
  ################################################################################
    species        N
  #     global species definitions
      nucleus             7
      mass                14.0067
  #
      l_hartree           4
  #
      cut_pot             3.5  1.5  1.0
      basis_dep_cutoff    1e-4
  #
      radial_base         35 5.0
      radial_multiplier   1
      angular_grids       specified
        division   0.2599   50
        division   0.4601  110
        division   0.5885  194
        division   0.6503  302
  #      division   0.6939  434
  #      division   0.7396  590
  #      division   0.7632  770
  #      division   0.8122  974
  #      division   1.1604 1202
  #      outer_grid  974
        outer_grid  302
  ################################################################################
  #
  #  Definition of "minimal" basis
  #
  ################################################################################
  #     valence basis states
      valence      2  s   2.
      valence      2  p   3.
  #     ion occupancy
      ion_occ      2  s   1.
      ion_occ      2  p   2.
  ################################################################################
  #
  #  Suggested additional basis functions. For production calculations,
  #  uncomment them one after another (the most important basis functions are
  #  listed first).
  #
  #  Constructed for dimers: 1.0 A, 1.1 A, 1.5 A, 2.0 A, 3.0 A
  #
  ################################################################################
  #  "First tier" - improvements: -1193.42 meV to -220.60 meV
       hydro 2 p 1.8
       hydro 3 d 6.8
       hydro 3 s 5.8
  #  "Second tier" - improvements: -80.21 meV to -6.86 meV
  #     hydro 4 f 10.8
  #     hydro 3 p 5.8
  #     hydro 1 s 0.8
  #     hydro 5 g 16
  #     hydro 3 d 4.9
  #  "Third tier" - improvements: -4.29 meV to -0.53 meV
  #     hydro 3 s 16
  #     ionic 2 p auto
  #     hydro 3 d 6.6
  #     hydro 4 f 11.6
  #  "Fourth tier" - improvements: -0.75 meV to -0.25 meV
  #     hydro 2 p 4.5
  #     hydro 2 s 2.4
  #     hydro 5 g 14.4
  #     hydro 4 d 14.4
  #     hydro 4 f 16.8
  # Further basis functions - -0.21 meV and below
  #     hydro 3 p 14.8
  #     hydro 3 s 4.4
  #     hydro 3 d 19.6
  #     hydro 5 g 12.8
  ################################################################################
  #
  #  FHI-aims code project
  #  VB, Fritz-Haber Institut, 2009
  #
  #  Suggested "light" defaults for O atom (to be pasted into control.in file)
  #  Be sure to double-check any results obtained with these settings for post-processing,
  #  e.g., with the "tight" defaults and larger basis sets.
  #
  ################################################################################
    species        O
  #     global species definitions
      nucleus             8
      mass                15.9994
  #
      l_hartree           4
  #
      cut_pot             3.5  1.5  1.0
      basis_dep_cutoff    1e-4
  #
      radial_base         36 5.0
      radial_multiplier   1
       angular_grids specified
        division   0.2659   50
        division   0.4451  110
        division   0.6052  194
        division   0.7543  302
  #      division   0.8014  434
  #      division   0.8507  590
  #      division   0.8762  770
  #      division   0.9023  974
  #      division   1.2339 1202
  #      outer_grid 974
        outer_grid 302
  ################################################################################
  #
  #  Definition of "minimal" basis
  #
  ################################################################################
  #     valence basis states
      valence      2  s   2.
      valence      2  p   4.
  #     ion occupancy
      ion_occ      2  s   1.
      ion_occ      2  p   3.
  ################################################################################
  #
  #  Suggested additional basis functions. For production calculations,
  #  uncomment them one after another (the most important basis functions are
  #  listed first).
  #
  #  Constructed for dimers: 1.0 A, 1.208 A, 1.5 A, 2.0 A, 3.0 A
  #
  ################################################################################
  #  "First tier" - improvements: -699.05 meV to -159.38 meV
       hydro 2 p 1.8
       hydro 3 d 7.6
       hydro 3 s 6.4
  #  "Second tier" - improvements: -49.91 meV to -5.39 meV
  #     hydro 4 f 11.6
  #     hydro 3 p 6.2
  #     hydro 3 d 5.6
  #     hydro 5 g 17.6
  #     hydro 1 s 0.75
  #  "Third tier" - improvements: -2.83 meV to -0.50 meV
  #     ionic 2 p auto
  #     hydro 4 f 10.8
  #     hydro 4 d 4.7
  #     hydro 2 s 6.8
  #  "Fourth tier" - improvements: -0.40 meV to -0.12 meV
  #     hydro 3 p 5
  #     hydro 3 s 3.3
  #     hydro 5 g 15.6
  #     hydro 4 f 17.6
  #     hydro 4 d 14
  # Further basis functions - -0.08 meV and below
  #     hydro 3 s 2.1
  #     hydro 4 d 11.6
  #     hydro 3 p 16
  #     hydro 2 s 17.2
  
  -----------------------------------------------------------------------
  Completed first pass over input file control.in .
  -----------------------------------------------------------------------
  
  
  -----------------------------------------------------------------------
  Parsing geometry.in (first pass over file, find array dimensions only).
  The contents of geometry.in will be repeated verbatim below
  unless switched off by setting 'verbatim_writeout .false.' .
  in the first line of geometry.in .
  -----------------------------------------------------------------------
  
  #=======================================================
  # FHI-aims file: ./geometry.in
  # Created using the Atomic Simulation Environment (ASE)
  # Tue Feb 11 11:37:56 2020
  #=======================================================
  lattice_vector 6.5957600000000003 0.0000000000000000 0.0000000000000000
  lattice_vector -1.5450440000000001 7.2328489999999999 0.0000000000000000
  lattice_vector 0.0000000000000000 0.0000000000000000 90.9597310000000050
  atom_frac 0.7022389999999999 0.7714430000000000 0.4667050000000000 H
  atom_frac 0.8527860000000000 0.7481320000000000 0.5274360000000000 H
  atom_frac 0.3500430000000000 0.2473650000000000 0.4726740000000000 H
  atom_frac 0.7536680000000000 0.3937020000000000 0.4457680000000000 H
  atom_frac 0.7996330000000000 0.1252500000000000 0.5064560000000000 H
  atom_frac 0.2988840000000000 0.6252560000000000 0.4936110000000000 H
  atom_frac 0.5320430000000000 0.8299350000000000 0.4531970000000001 H
  atom_frac 0.0220780000000000 0.6893629999999999 0.5138840000000000 H
  atom_frac 0.5204460000000000 0.1889920000000000 0.4861380000000000 H
  atom_frac 0.8566390000000000 0.5554530000000000 0.4599180000000000 H
  atom_frac 0.6981000000000001 0.9643940000000000 0.5207150000000000 H
  atom_frac 0.1956740000000000 0.4633950000000000 0.4794840000000000 H
  atom_frac 0.2063670000000000 0.2733600000000000 0.5331620000000000 H
  atom_frac 0.2593690000000000 0.8961910000000000 0.5541210000000000 H
  atom_frac 0.0370650000000000 0.3321490000000000 0.5467150000000000 H
  atom_frac 0.3610330000000000 0.0570980000000000 0.5398830000000000 H
  atom_frac 0.5509510000000000 0.7262130000000000 0.4613770000000000 C
  atom_frac 0.0037260000000000 0.7933220000000000 0.5220640000000000 C
  atom_frac 0.5014080000000000 0.2926240000000000 0.4779580000000000 C
  atom_frac 0.7207060000000000 0.4534080000000000 0.4562919999999999 C
  atom_frac 0.8337010000000000 0.0661570000000000 0.5169790000000000 C
  atom_frac 0.3316750000000001 0.5654600000000000 0.4830870000000000 C
  atom_frac 0.0554070000000000 0.2281800000000000 0.5385350000000000 C
  atom_frac 0.2253910000000000 0.9553350000000000 0.5435970000000000 C
  atom_frac 0.5517919999999999 0.5474640000000000 0.4546120000000001 N
  atom_frac 0.0022650000000000 0.9717810000000000 0.5152550000000000 N
  atom_frac 0.5006380000000000 0.4714240000000000 0.4847450000000000 N
  atom_frac 0.3843390000000000 0.7166630000000000 0.4720770000000000 N
  atom_frac 0.6679210000000000 0.3021040000000000 0.4672799999999999 N
  atom_frac 0.8879120000000000 0.2181420000000000 0.5279010000000000 N
  atom_frac 0.3940510000000000 0.4732210000000000 0.4447520000000000 N
  atom_frac 0.1594910000000000 0.0459580000000000 0.5053500000000000 N
  atom_frac 0.6583700000000000 0.5456370000000000 0.4946060000000000 N
  atom_frac 0.2267700000000000 0.8074270000000000 0.4688720000000001 N
  atom_frac 0.3281990000000000 0.7120240000000000 0.5294480000000000 N
  atom_frac 0.8255100000000000 0.2113600000000000 0.4704850000000000 N
  atom_frac 0.0568280000000000 0.0497110000000000 0.5453440000000001 N
  atom_frac 0.1712500000000000 0.8034000000000000 0.5326760000000000 N
  atom_frac 0.8995710000000000 0.9755239999999999 0.5552260000000000 N
  atom_frac 0.7309430000000000 0.3095080000000000 0.5311280000000000 N
  atom_frac 0.2624250000000000 0.5663610000000000 0.4423200000000000 O
  atom_frac 0.2913050000000000 0.9530080000000000 0.5029180000000000 O
  atom_frac 0.7899850000000000 0.4524860000000000 0.4970150000000000 O
  atom_frac 0.3972810000000001 0.3194280000000000 0.4397550000000000 O
  atom_frac 0.1556400000000000 0.1995140000000000 0.5003320000000000 O
  atom_frac 0.6551709999999999 0.6994300000000000 0.4996240000000001 O
  atom_frac 0.2624230000000000 0.9362940000000000 0.4599840000000000 O
  atom_frac 0.2914860000000000 0.5826020000000000 0.5206270000000000 O
  atom_frac 0.7898060000000000 0.0824430000000000 0.4793510000000000 O
  atom_frac 0.0621050000000000 0.7541490000000000 0.4757470000000000 O
  atom_frac 0.9902069999999999 0.2646690000000000 0.4636320000000000 O
  atom_frac 0.5656930000000000 0.2561780000000000 0.5243409999999999 O
  atom_frac 0.7677570000000000 0.0684840000000000 0.5576580000000000 O
  atom_frac 0.9033620000000000 0.8219470000000000 0.5602450000000000 O
  atom_frac 0.7676780000000000 0.4389400000000000 0.5399720000000000 O
  atom_frac 0.4934390000000000 0.7653329999999999 0.5362350000000000 O
  
  -----------------------------------------------------------------------
  Completed first pass over input file geometry.in .
  -----------------------------------------------------------------------
  

  Basic array size parameters:
  | Number of species                 :        4
  | Number of atoms                   :       56
  | Number of lattice vectors         :        3
  | Max. basis fn. angular momentum   :        2
  | Max. atomic/ionic basis occupied n:        2
  | Max. number of basis fn. types    :        2
  | Max. radial fns per species/type  :        3
  | Max. logarithmic grid size        :     1301
  | Max. radial integration grid size :       36
  | Max. angular integration grid size:      302
  | Max. angular grid division number :        8
  | Radial grid for Hartree potential :     1301
  | Number of spin channels           :        1

------------------------------------------------------------
          Reading file control.in.
------------------------------------------------------------
  XC: Using PBE gradient-corrected functionals.
  Spin treatment: No spin polarisation.
  Scalar relativistic treatment of kinetic energy: on-site free-atom approximation to ZORA.
  Charge =   0.000000E+00: Neutral system requested explicitly.
  Occupation type: Gaussian broadening, width =   0.100000E-01 eV.
  Using pulay charge density mixing.
  Pulay mixing - number of memorized iterations:    8
  Charge density mixing - mixing parameter:     0.0200
  Convergence accuracy of self-consistent charge density:  0.1000E-03
  Convergence accuracy of sum of eigenvalues:  0.1000E-01
  Convergence accuracy of total energy:  0.1000E-05
  Maximum number of s.-c. iterations  : 10000
  Kohn-Sham electronic structure solved by the ELSI library.
  Number of empty states per atom:        6
  Threshold for basis singularities:  0.1000E-04
  Found k-point grid:         4         4         1
  Using dipole correction.
 
  Reading configuration options for species H                   .
  | Found nuclear charge :   1.0000
  | Found atomic mass :    1.00794000000000      amu
  | Found l_max for Hartree potential  :   4
  | Found cutoff potl. onset [A], width [A], scale factor :    3.50000    1.50000    1.00000
  | Threshold for basis-dependent cutoff potential is   0.100000E-03
  | Found data for basic radial integration grid :    24 points, outermost radius =    5.000 A
  | Found multiplier for basic radial grid :   1
  | Found angular grid specification: user-specified.
  | Specified grid contains     5 separate shells.
  | Check grid settings after all constraints further below.
  | Found free-atom valence shell :  1 s   1.000
  | No ionic wave fns used. Skipping ion_occ.
  | Found hydrogenic basis function :  2 s   2.100
  | Found hydrogenic basis function :  2 p   3.500
  Species H                   : Missing cutoff potential type.
  Defaulting to exp(1/x)/(1-x)^2 type cutoff potential.
  Species H : No 'logarithmic' tag. Using default grid for free atom:
  | Default logarithmic grid data [bohr] : 0.1000E-03 0.1000E+03 0.1012E+01
  Species H : On-site basis accuracy parameter (for Gram-Schmidt orthonormalisation) not specified.
  Using default value basis_acc =  0.1000000E-03.
  Species H                   : Using default innermost maximum threshold i_radial=  2 for radial functions.
  Species H                   : Default cutoff onset for free atom density etc. : 0.35000000E+01 AA.
  Species H                   : Basic radial grid will be enhanced according to radial_multiplier =   1, to contain    24 grid points.
 
  Reading configuration options for species C                   .
  | Found nuclear charge :   6.0000
  | Found atomic mass :    12.0107000000000      amu
  | Found l_max for Hartree potential  :   4
  | Found cutoff potl. onset [A], width [A], scale factor :    3.50000    1.50000    1.00000
  | Threshold for basis-dependent cutoff potential is   0.100000E-03
  | Found data for basic radial integration grid :    34 points, outermost radius =    5.000 A
  | Found multiplier for basic radial grid :   1
  | Found angular grid specification: user-specified.
  | Specified grid contains     5 separate shells.
  | Check grid settings after all constraints further below.
  | Found free-atom valence shell :  2 s   2.000
  | Found free-atom valence shell :  2 p   2.000
  | No ionic wave fns used. Skipping ion_occ.
  | No ionic wave fns used. Skipping ion_occ.
  | Found hydrogenic basis function :  2 p   1.700
  | Found hydrogenic basis function :  3 d   6.000
  | Found hydrogenic basis function :  2 s   4.900
  Species C                   : Missing cutoff potential type.
  Defaulting to exp(1/x)/(1-x)^2 type cutoff potential.
  Species C : No 'logarithmic' tag. Using default grid for free atom:
  | Default logarithmic grid data [bohr] : 0.1000E-03 0.1000E+03 0.1012E+01
  Species C : On-site basis accuracy parameter (for Gram-Schmidt orthonormalisation) not specified.
  Using default value basis_acc =  0.1000000E-03.
  Species C                   : Using default innermost maximum threshold i_radial=  2 for radial functions.
  Species C                   : Default cutoff onset for free atom density etc. : 0.35000000E+01 AA.
  Species C                   : Basic radial grid will be enhanced according to radial_multiplier =   1, to contain    34 grid points.
 
  Reading configuration options for species N                   .
  | Found nuclear charge :   7.0000
  | Found atomic mass :    14.0067000000000      amu
  | Found l_max for Hartree potential  :   4
  | Found cutoff potl. onset [A], width [A], scale factor :    3.50000    1.50000    1.00000
  | Threshold for basis-dependent cutoff potential is   0.100000E-03
  | Found data for basic radial integration grid :    35 points, outermost radius =    5.000 A
  | Found multiplier for basic radial grid :   1
  | Found angular grid specification: user-specified.
  | Specified grid contains     5 separate shells.
  | Check grid settings after all constraints further below.
  | Found free-atom valence shell :  2 s   2.000
  | Found free-atom valence shell :  2 p   3.000
  | No ionic wave fns used. Skipping ion_occ.
  | No ionic wave fns used. Skipping ion_occ.
  | Found hydrogenic basis function :  2 p   1.800
  | Found hydrogenic basis function :  3 d   6.800
  | Found hydrogenic basis function :  3 s   5.800
  Species N                   : Missing cutoff potential type.
  Defaulting to exp(1/x)/(1-x)^2 type cutoff potential.
  Species N : No 'logarithmic' tag. Using default grid for free atom:
  | Default logarithmic grid data [bohr] : 0.1000E-03 0.1000E+03 0.1012E+01
  Species N : On-site basis accuracy parameter (for Gram-Schmidt orthonormalisation) not specified.
  Using default value basis_acc =  0.1000000E-03.
  Species N                   : Using default innermost maximum threshold i_radial=  2 for radial functions.
  Species N                   : Default cutoff onset for free atom density etc. : 0.35000000E+01 AA.
  Species N                   : Basic radial grid will be enhanced according to radial_multiplier =   1, to contain    35 grid points.
 
  Reading configuration options for species O                   .
  | Found nuclear charge :   8.0000
  | Found atomic mass :    15.9994000000000      amu
  | Found l_max for Hartree potential  :   4
  | Found cutoff potl. onset [A], width [A], scale factor :    3.50000    1.50000    1.00000
  | Threshold for basis-dependent cutoff potential is   0.100000E-03
  | Found data for basic radial integration grid :    36 points, outermost radius =    5.000 A
  | Found multiplier for basic radial grid :   1
  | Found angular grid specification: user-specified.
  | Specified grid contains     5 separate shells.
  | Check grid settings after all constraints further below.
  | Found free-atom valence shell :  2 s   2.000
  | Found free-atom valence shell :  2 p   4.000
  | No ionic wave fns used. Skipping ion_occ.
  | No ionic wave fns used. Skipping ion_occ.
  | Found hydrogenic basis function :  2 p   1.800
  | Found hydrogenic basis function :  3 d   7.600
  | Found hydrogenic basis function :  3 s   6.400
  Species O                   : Missing cutoff potential type.
  Defaulting to exp(1/x)/(1-x)^2 type cutoff potential.
  Species O : No 'logarithmic' tag. Using default grid for free atom:
  | Default logarithmic grid data [bohr] : 0.1000E-03 0.1000E+03 0.1012E+01
  Species O : On-site basis accuracy parameter (for Gram-Schmidt orthonormalisation) not specified.
  Using default value basis_acc =  0.1000000E-03.
  Species O                   : Using default innermost maximum threshold i_radial=  2 for radial functions.
  Species O                   : Default cutoff onset for free atom density etc. : 0.35000000E+01 AA.
  Species O                   : Basic radial grid will be enhanced according to radial_multiplier =   1, to contain    36 grid points.
 
  Finished reading input file 'control.in'. Consistency checks are next.
 
  MPI_IN_PLACE appears to work with this MPI implementation.
  | Keeping use_mpi_in_place .true. (see manual).
  Target number of points in a grid batch is not set. Defaulting to  100
  Method for grid partitioning is not set. Defaulting to parallel hash+maxmin partitioning.
  Batch size limit is not set. Defaulting to    200
  By default, will store active basis functions for each batch.
  If in need of memory, prune_basis_once .false. can be used to disable this option.
  communication_type for Hartree potential was not specified.
  Defaulting to calc_hartree .
  Pulay mixer: Number of initial linear mixing iterations not set.
  Defaulting to    0 iterations.
  Work space size for distributed Hartree potential not set.
  Defaulting to   0.200000E+03 MB.
  Algorithm-dependent basis array size parameters:
  | n_max_pulay                         :        8
  Presetting      1001 iterations before the initial mixing cycle
  is restarted anyway using the sc_init_iter criterion / keyword.
  Presetting a factor      1.000 between actual scf density residual
  and density convergence criterion sc_accuracy_rho below which sc_init_iter
  takes no effect.
  Calculation of forces was not defined in control.in. No forces will be calculated.
  Geometry relaxation not requested: no relaxation will be performed.
  No accuracy limit for integral partition fn. given. Defaulting to  0.1000E-14.
  No threshold value for u(r) in integrations given. Defaulting to  0.1000E-05.
  No accuracy for occupation numbers given. Defaulting to  0.1000E-12.
  No threshold value for occupation numbers given. Defaulting to  0.0000E+00.
  No accuracy for fermi level given. Defaulting to  0.1000E-19.
  Maximum # of iterations to find E_F not set. Defaulting to  200.
  Maximum number of tasks per SMP nodenot specified.
  Presetting   512 tasks.
  Will not use alltoall communication since running on < 1024 CPUs.
  partition_type (choice of integration weights) for integrals was not specified.
  | Using a version of the partition function of Stratmann and coworkers ('stratmann_smoother').
  | At each grid point, the set of atoms used to build the partition table is smoothly restricted to
  | only those atoms whose free-atom density would be non-zero at that grid point.
  Partitioning for Hartree potential was not defined. Using partition_type for integrals.
  | Adjusted default value of keyword multip_moments_threshold to:       0.10000000E-11
  | This value may affect high angular momentum components of the Hartree potential in periodic systems.
  Angular momentum expansion for Kerker preconditioner not set explicitly.
  | Using default value of   0
  No explicit requirement for turning off preconditioner.
  | By default, it will be turned off when the charge convergence reaches
  | sc_accuracy_rho  =   0.100000E-03
  | sc_accuracy_eev  =   0.100000E-01
  | sc_accuracy_etot =   0.100000E-05
  No special mixing parameter while Kerker preconditioner is on.
  Using default: charge_mix_param =     0.0200.
  No q(lm)/r^(l+1) cutoff set for long-range Hartree potential.
  | Using default value of  0.100000E-09 .
  | Verify using the multipole_threshold keyword.
  Defaulting to new monopole extrapolation.
  Density update method: automatic selection selected.
  Using density matrix based charge density update.
  Using density matrix based charge density update.
  Using packed matrix style: index .
  Defaulting to use time-reversal symmetry for k-point grid.
  Using the following vdw_convergence_threshold for supercell sums
  over the Tkatchenko-Scheffler correction:  0.100000E-05 eV.
------------------------------------------------------------


------------------------------------------------------------
          Reading geometry description geometry.in.
------------------------------------------------------------
  Input structure read successfully.
  The structure contains       56 atoms,  and a total of        304.000 electrons.

  Input geometry:
  | Unit cell:
  |        6.59576000        0.00000000        0.00000000
  |       -1.54504400        7.23284900        0.00000000
  |        0.00000000        0.00000000       90.95973100
  | Atomic structure:
  |       Atom                x [A]            y [A]            z [A]
  |    1: Species H             3.43988653        5.57973073       42.45136126
  |    2: Species H             4.46887493        5.41112579       47.97543668
  |    3: Species H             1.92660981        1.78915369       42.99429989
  |    4: Species H             4.36272633        2.84758712       40.54693737
  |    5: Species H             5.08067060        0.90591434       46.06710152
  |    6: Species H             1.00531910        4.52238223       44.89872378
  |    7: Species H             2.22694185        6.00279453       41.22267721
  |    8: Species H            -0.91947498        4.98605849       46.74275041
  |    9: Species H             3.14073595        1.36695060       44.21898171
  |   10: Species H             4.79198593        4.01750768       41.83401756
  |   11: Species H             3.11446889        6.97531618       47.36409633
  |   12: Species H             0.57465308        3.35166606       43.61373566
  |   13: Species H             0.93879398        1.97717160       48.49627210
  |   14: Species H             0.32608115        6.48201418       50.40269710
  |   15: Species H            -0.26871298        2.40238356       49.72904933
  |   16: Species H             2.29306810        0.41298121       49.10761245
  |   17: Species C             2.51190953        5.25258897       41.96672781
  |   18: Species C            -1.20114159        5.73797823       47.48680100
  |   19: Species C             2.85504987        2.11650521       43.47493111
  |   20: Species C             4.05306850        3.27943160       41.50419758
  |   21: Species C             5.39667623        0.47850359       47.02427077
  |   22: Species C             1.31398812        4.08988680       43.94146357
  |   23: Species C             0.01290313        1.65039148       48.98499873
  |   24: Species C             0.01059033        6.90979380       49.44543689
  |   25: Species N             2.79363163        3.95972444       41.35138523
  |   26: Species N            -1.48650501        7.02874523       46.86745620
  |   27: Species N             2.57371727        3.40973861       44.09227480
  |   28: Species N             1.42773193        5.18351526       42.93999693
  |   29: Species N             3.93868264        2.18507261       42.50366310
  |   30: Species N             5.51941546        1.57778815       48.01773295
  |   31: Species N             1.86791856        3.42273604       40.45452228
  |   32: Species N             0.98095723        0.33240727       45.96650006
  |   33: Species N             3.49941734        3.94651003       44.98922871
  |   34: Species N             0.24821025        5.83999757       42.64847099
  |   35: Species N             1.06461343        5.14996208       48.15844766
  |   36: Species N             5.11830534        1.52873496       42.79518904
  |   37: Species N             0.29801817        0.35955216       49.60434354
  |   38: Species N            -0.11176445        5.81087089       48.45206567
  |   39: Species N             4.42612692        7.05581779       50.50320760
  |   40: Species N             4.34292112        2.23862463       48.31126001
  |   41: Species O             0.85583965        4.09640359       40.23330822
  |   42: Species O             0.44893857        6.89296296       45.74528600
  |   43: Species O             4.51144068        3.27276291       45.20835070
  |   44: Species O             2.12683981        2.31037449       39.99999651
  |   45: Species O             0.71830618        1.44305464       45.51006413
  |   46: Species O             3.24070055        5.05887158       45.44566464
  |   47: Species O             0.28426370        6.77207312       41.84002090
  |   48: Species O             1.02242597        4.21387229       47.35609187
  |   49: Species O             5.08199276        0.59629777       43.60163801
  |   50: Species O            -0.75556371        5.45464584       43.27381914
  |   51: Species O             6.12224247        1.91431091       42.17184200
  |   52: Species O             3.33536898        1.85289679       47.69391631
  |   53: Species O             4.95813012        0.49533443       50.72442167
  |   54: Species O             4.68841466        5.94501854       50.95973449
  |   55: Species O             4.38523823        3.17478674       49.11570787
  |   56: Species O             2.07213206        5.53553802       48.77579135

  Lattice parameters for 3D lattice (in Angstroms) :     6.595760    7.396030   90.959731
  Angle(s) between unit vectors (in degrees)       :    90.000000   90.000000  102.058002

  |

  | The smallest distance between any two atoms is         1.09410234 AA.
  |
  | The first atom of this pair is atom number                      9 .
  | The second atom of this pair is atom number                    19 .
  | Wigner-Seitz cell of the first atom image           0     0     0 .
  | (The Wigner-Seitz cell of the second atom is 0 0 0  by definition.)

  Quantities derived from the lattice vectors:
  | Reciprocal lattice vector 1:  0.952610  0.203492  0.000000
  | Reciprocal lattice vector 2: -0.000000  0.868701  0.000000
  | Reciprocal lattice vector 3:  0.000000  0.000000  0.069077
  | Unit cell volume                               :   0.433934E+04  A^3

  Range separation radius for Ewald summation (hartree_convergence_parameter):      5.00000000 bohr.

  Fractional coordinates:
                         L1                L2                L3
       atom_frac         0.70223900        0.77144300        0.46670500  H
       atom_frac         0.85278600        0.74813200        0.52743600  H
       atom_frac         0.35004300        0.24736500        0.47267400  H
       atom_frac         0.75366800        0.39370200        0.44576800  H
       atom_frac         0.79963300        0.12525000        0.50645600  H
       atom_frac         0.29888400        0.62525600        0.49361100  H
       atom_frac         0.53204300        0.82993500        0.45319700  H
       atom_frac         0.02207800        0.68936300        0.51388400  H
       atom_frac         0.52044600        0.18899200        0.48613800  H
       atom_frac         0.85663900        0.55545300        0.45991800  H
       atom_frac         0.69810000        0.96439400        0.52071500  H
       atom_frac         0.19567400        0.46339500        0.47948400  H
       atom_frac         0.20636700        0.27336000        0.53316200  H
       atom_frac         0.25936900        0.89619100        0.55412100  H
       atom_frac         0.03706500        0.33214900        0.54671500  H
       atom_frac         0.36103300        0.05709800        0.53988300  H
       atom_frac         0.55095100        0.72621300        0.46137700  C
       atom_frac         0.00372600        0.79332200        0.52206400  C
       atom_frac         0.50140800        0.29262400        0.47795800  C
       atom_frac         0.72070600        0.45340800        0.45629200  C
       atom_frac         0.83370100        0.06615700        0.51697900  C
       atom_frac         0.33167500        0.56546000        0.48308700  C
       atom_frac         0.05540700        0.22818000        0.53853500  C
       atom_frac         0.22539100        0.95533500        0.54359700  C
       atom_frac         0.55179200        0.54746400        0.45461200  N
       atom_frac         0.00226500        0.97178100        0.51525500  N
       atom_frac         0.50063800        0.47142400        0.48474500  N
       atom_frac         0.38433900        0.71666300        0.47207700  N
       atom_frac         0.66792100        0.30210400        0.46728000  N
       atom_frac         0.88791200        0.21814200        0.52790100  N
       atom_frac         0.39405100        0.47322100        0.44475200  N
       atom_frac         0.15949100        0.04595800        0.50535000  N
       atom_frac         0.65837000        0.54563700        0.49460600  N
       atom_frac         0.22677000        0.80742700        0.46887200  N
       atom_frac         0.32819900        0.71202400        0.52944800  N
       atom_frac         0.82551000        0.21136000        0.47048500  N
       atom_frac         0.05682800        0.04971100        0.54534400  N
       atom_frac         0.17125000        0.80340000        0.53267600  N
       atom_frac         0.89957100        0.97552400        0.55522600  N
       atom_frac         0.73094300        0.30950800        0.53112800  N
       atom_frac         0.26242500        0.56636100        0.44232000  O
       atom_frac         0.29130500        0.95300800        0.50291800  O
       atom_frac         0.78998500        0.45248600        0.49701500  O
       atom_frac         0.39728100        0.31942800        0.43975500  O
       atom_frac         0.15564000        0.19951400        0.50033200  O
       atom_frac         0.65517100        0.69943000        0.49962400  O
       atom_frac         0.26242300        0.93629400        0.45998400  O
       atom_frac         0.29148600        0.58260200        0.52062700  O
       atom_frac         0.78980600        0.08244300        0.47935100  O
       atom_frac         0.06210500        0.75414900        0.47574700  O
       atom_frac         0.99020700        0.26466900        0.46363200  O
       atom_frac         0.56569300        0.25617800        0.52434100  O
       atom_frac         0.76775700        0.06848400        0.55765800  O
       atom_frac         0.90336200        0.82194700        0.56024500  O
       atom_frac         0.76767800        0.43894000        0.53997200  O
       atom_frac         0.49343900        0.76533300        0.53623500  O

  Structure-dependent array size parameters: 
  | Maximum number of distinct radial functions  :       21
  | Maximum number of basis functions            :      640
  | Number of Kohn-Sham states (occupied + empty):      320
------------------------------------------------------------
 Error: The dipole correction needs vacuum z-level to be defined
 Vacuum level will be determined automatically.
 Determine position of vacuum level automatically
 **WARNING** : This feature is experimental and still requires some testing
 **PLEASE ** : If you see it fail, please report.
 Vacuum level determined:
 set_vacuum_level    90.9597310000000

------------------------------------------------------------
          Preparing all fixed parts of the calculation.
------------------------------------------------------------
  Determining machine precision:
    2.225073858507201E-308
  Setting up grids for atomic and cluster calculations.

  Creating wave function, potential, and density for free atoms.

  Species: H

  List of occupied orbitals and eigenvalues:
    n    l              occ      energy [Ha]    energy [eV]
    1    0           1.0000        -0.237593        -6.4652


  Species: C

  List of occupied orbitals and eigenvalues:
    n    l              occ      energy [Ha]    energy [eV]
    1    0           2.0000       -10.046810      -273.3876
    2    0           2.0000        -0.503128       -13.6908
    2    1           2.0000        -0.191849        -5.2205


  Species: N

  List of occupied orbitals and eigenvalues:
    n    l              occ      energy [Ha]    energy [eV]
    1    0           2.0000       -14.143973      -384.8771
    2    0           2.0000        -0.682008       -18.5584
    2    1           3.0000        -0.259605        -7.0642


  Species: O

  List of occupied orbitals and eigenvalues:
    n    l              occ      energy [Ha]    energy [eV]
    1    0           2.0000       -18.926989      -515.0296
    2    0           2.0000        -0.880247       -23.9527
    2    1           4.0000        -0.331514        -9.0210

  Creating fixed part of basis set: Ionic, confined, hydrogenic.
 
  H                    hydrogenic:
 
  List of hydrogenic basis orbitals: 
    n    l      effective z      eigenvalue [eV]  inner max. [A]     outer max. [A]     outer radius [A]   
    2    0         2.100000       -14.9728           0.193243           1.317208           4.583499
    2    1         3.500000       -41.6669           0.602369           0.602369           3.723403
 
 
  C                    hydrogenic:
 
  List of hydrogenic basis orbitals: 
    n    l      effective z      eigenvalue [eV]  inner max. [A]     outer max. [A]     outer radius [A]   
    2    1         1.700000        -9.7616           1.230570           1.230570           4.607917
    3    2         6.000000       -54.4224           0.792453           0.792453           3.883070
    2    0         4.900000       -81.6679           0.082559           0.562749           3.078220
 
 
  N                    hydrogenic:
 
  List of hydrogenic basis orbitals: 
    n    l      effective z      eigenvalue [eV]  inner max. [A]     outer max. [A]     outer radius [A]   
    2    1         1.800000       -10.9749           1.177451           1.177451           4.573712
    3    2         6.800000       -69.9026           0.704619           0.704619           3.538137
    3    0         5.800000       -50.8545           0.067388           1.191934           4.250239
 
 
  O                    hydrogenic:
 
  List of hydrogenic basis orbitals: 
    n    l      effective z      eigenvalue [eV]  inner max. [A]     outer max. [A]     outer radius [A]   
    2    1         1.800000       -10.9749           1.164242           1.164242           4.578029
    3    2         7.600000       -87.3180           0.624125           0.624125           3.251020
    3    0         6.400000       -61.9207           0.061167           1.081902           4.001998
 

  Adding cutoff potential to free-atom effective potential.
  Creating atomic-like basis functions for current effective potential.

  Species H                   :

  List of atomic basis orbitals and eigenvalues:
    n    l      energy [Ha]    energy [eV]    outer radius [A]
    1    0        -0.237593        -6.4652       4.527807


  Species C                   :

  List of atomic basis orbitals and eigenvalues:
    n    l      energy [Ha]    energy [eV]    outer radius [A]
    1    0       -10.046810      -273.3876       1.934409
    2    0        -0.503128       -13.6908       4.496620
    2    1        -0.191849        -5.2205       4.551928


  Species N                   :

  List of atomic basis orbitals and eigenvalues:
    n    l      energy [Ha]    energy [eV]    outer radius [A]
    1    0       -14.143973      -384.8771       1.637919
    2    0        -0.682008       -18.5584       4.463241
    2    1        -0.259605        -7.0642       4.518138


  Species O                   :

  List of atomic basis orbitals and eigenvalues:
    n    l      energy [Ha]    energy [eV]    outer radius [A]
    1    0       -18.926989      -515.0296       1.415765
    2    0        -0.880247       -23.9527       4.413171
    2    1        -0.331514        -9.0210       4.522403

  Assembling full basis from fixed parts.
  | Species H :   atomic orbital   1 s accepted.
  | Species H :    hydro orbital   2 s accepted.
  | Species H :    hydro orbital   2 p accepted.
  | Species C :   atomic orbital   1 s accepted.
  | Species C :    hydro orbital   2 s accepted.
  | Species C :   atomic orbital   2 s accepted.
  | Species C :   atomic orbital   2 p accepted.
  | Species C :    hydro orbital   2 p accepted.
  | Species C :    hydro orbital   3 d accepted.
  | Species N :   atomic orbital   1 s accepted.
  | Species N :    hydro orbital   3 s accepted.
  | Species N :   atomic orbital   2 s accepted.
  | Species N :   atomic orbital   2 p accepted.
  | Species N :    hydro orbital   2 p accepted.
  | Species N :    hydro orbital   3 d accepted.
  | Species O :   atomic orbital   1 s accepted.
  | Species O :    hydro orbital   3 s accepted.
  | Species O :   atomic orbital   2 s accepted.
  | Species O :   atomic orbital   2 p accepted.
  | Species O :    hydro orbital   2 p accepted.
  | Species O :    hydro orbital   3 d accepted.
 
  Basis size parameters after reduction:
  | Total number of radial functions:       21
  | Total number of basis functions :      640
 
  Per-task memory consumption for arrays in subroutine allocate_ext:
  |           7.013432MB.
  Testing on-site integration grid accuracy.
  |  Species  Function  <phi|h_atom|phi> (log., in eV)  <phi|h_atom|phi> (rad., in eV)
           1        1                 -6.4664147733                 -6.4652229287
           1        2                 13.7099062243                 13.7158503352
           1        3                 25.2661739479                 25.2663166526
           2        4               -273.3876219315               -273.3875919975
           2        5                -10.7204647108                -10.7200987593
           2        6                 17.5782951179                 17.5752355749
           2        7                 -5.2222267968                 -5.2237454457
           2        8                  8.6866956299                  8.6634852752
           2        9                 27.4984676176                 27.4985577282
           3       10               -384.8770852102               -384.8770238661
           3       11                 12.5754985571                 12.5755902269
           3       12                -15.7673946340                -15.7673131149
           3       13                 -7.0647024644                 -7.0651952861
           3       14                  8.8117910311                  8.7928686445
           3       15                 35.9641313273                 35.9643080892
           4       16               -515.0295626295               -515.0294562738
           4       17                 15.1698434419                 15.1699322204
           4       18                -21.6038822678                -21.6039118105
           4       19                 -9.0211123393                 -9.0212703513
           4       20                  8.3047696391                  8.2854840999
           4       21                 45.8428042125                 45.8427461222

  Preparing densities etc. for the partition functions (integrals / Hartree potential).

  Preparations completed.
  max(cpu_time)          :      0.260 s.
  Wall clock time (cpu1) :      0.247 s.
------------------------------------------------------------

------------------------------------------------------------
          Begin self-consistency loop: Initialization.

          Date     :  20200214, Time     :  043618.394
------------------------------------------------------------

  Initializing index lists of integration centers etc. from given atomic structure:
  Mapping all atomic coordinates to central unit cell.

  Initializing the k-points
          Using symmetry for reducing the k-points
  | k-points reduced from:       16 to       10
  | Number of k-points                             :        10
  The eigenvectors in the calculations are COMPLEX.
  | Number of basis functions in the Hamiltonian integrals :      4842
  | Number of basis functions in a single unit cell        :       640
  | Number of centers in hartree potential         :      2948
  | Number of centers in hartree multipole         :      1341
  | Number of centers in electron density summation:      1089
  | Number of centers in basis integrals           :      1134
  | Number of centers in integrals                 :       558
  | Number of centers in hamiltonian               :      1094
  | Consuming          8 KiB for k_phase.
  | Number of super-cells (origin) [n_cells]                     :         189
  | Number of super-cells (after PM_index) [n_cells]             :          54
  | Number of super-cells in hamiltonian [n_cells_in_hamiltonian]:          54
  | Size of matrix packed + index [n_hamiltonian_matrix_size] :      674172
  Checking for possible mapping of k-points to SMP-nodes
  Running on 1 SMP-nodes
  Mapping of k-points to SMP-nodes is *NOT* possible:
  | 10 k-points  : 1 SMP-nodes
 * The calculation will run, but some performance degradation might result.
 * Check the number of actual k-points above, and consider using a number
 * compute nodes that can be divided cleanly by the number of k points
 * (e.g., two k-points per node, two nodes per k-point, etc.).
  Using simple linear distribution as default method for k-point parallelism.
  * Using 56 tasks for Scalapack Eigenvalue solver.
  Detailed listing of tasks and assigned k-points:
   Task     0 k-point     1 on d035
   Task     1 k-point     1 on d035
   Task     2 k-point     1 on d035
   Task     3 k-point     1 on d035
   Task     4 k-point     1 on d035
   Task     5 k-point     1 on d035
   Task     6 k-point     2 on d035
   Task     7 k-point     2 on d035
   Task     8 k-point     2 on d035
   Task     9 k-point     2 on d035
   Task    10 k-point     2 on d035
   Task    11 k-point     2 on d035
   Task    12 k-point     3 on d035
   Task    13 k-point     3 on d035
   Task    14 k-point     3 on d035
   Task    15 k-point     3 on d035
   Task    16 k-point     3 on d035
   Task    17 k-point     4 on d035
   Task    18 k-point     4 on d035
   Task    19 k-point     4 on d035
   Task    20 k-point     4 on d035
   Task    21 k-point     4 on d035
   Task    22 k-point     4 on d035
   Task    23 k-point     5 on d035
   Task    24 k-point     5 on d035
   Task    25 k-point     5 on d035
   Task    26 k-point     5 on d035
   Task    27 k-point     5 on d035
   Task    28 k-point     6 on d035
   Task    29 k-point     6 on d035
   Task    30 k-point     6 on d035
   Task    31 k-point     6 on d035
   Task    32 k-point     6 on d035
   Task    33 k-point     6 on d035
   Task    34 k-point     7 on d035
   Task    35 k-point     7 on d035
   Task    36 k-point     7 on d035
   Task    37 k-point     7 on d035
   Task    38 k-point     7 on d035
   Task    39 k-point     7 on d035
   Task    40 k-point     8 on d035
   Task    41 k-point     8 on d035
   Task    42 k-point     8 on d035
   Task    43 k-point     8 on d035
   Task    44 k-point     8 on d035
   Task    45 k-point     9 on d035
   Task    46 k-point     9 on d035
   Task    47 k-point     9 on d035
   Task    48 k-point     9 on d035
   Task    49 k-point     9 on d035
   Task    50 k-point     9 on d035
   Task    51 k-point    10 on d035
   Task    52 k-point    10 on d035
   Task    53 k-point    10 on d035
   Task    54 k-point    10 on d035
   Task    55 k-point    10 on d035
  K-point:     1 Tasks:     6 split into      3 X      2 BLACS grid
  Calculating block size based on n_basis =          640  max_nprow =            5  max_npcol =            2
  ScaLAPACK block size set to:           16
  Allocating        1.147 MB for ovlp_complex
  Allocating        1.147 MB for ham_complex
  Allocating        1.147 MB for eigenvec_complex
  Required Scalapack workspace - INTEGER:            1  REAL:             1  COMPLEX:            1
  Partitioning the integration grid into batches with parallel hashing+maxmin method.
  | Number of batches:     3662
  | Maximal batch size:     192
  | Minimal batch size:      59
  | Average batch size:      89.009
  | Standard deviation of batch sizes:      23.450

  Integration load balanced across    56 MPI tasks.
  Work distribution over tasks is as follows:
  Task     0 has       5807 integration points.
  Task     1 has       5830 integration points.
  Task     2 has       5842 integration points.
  Task     3 has       5848 integration points.
  Task     4 has       5850 integration points.
  Task     5 has       5802 integration points.
  Task     6 has       5816 integration points.
  Task     7 has       5809 integration points.
  Task     8 has       5846 integration points.
  Task     9 has       5839 integration points.
  Task    10 has       5853 integration points.
  Task    11 has       5800 integration points.
  Task    12 has       5796 integration points.
  Task    13 has       5844 integration points.
  Task    14 has       5852 integration points.
  Task    15 has       5850 integration points.
  Task    16 has       5797 integration points.
  Task    17 has       5790 integration points.
  Task    18 has       5793 integration points.
  Task    19 has       5799 integration points.
  Task    20 has       5829 integration points.
  Task    21 has       5792 integration points.
  Task    22 has       5854 integration points.
  Task    23 has       5798 integration points.
  Task    24 has       5836 integration points.
  Task    25 has       5803 integration points.
  Task    26 has       5800 integration points.
  Task    27 has       5802 integration points.
  Task    28 has       5795 integration points.
  Task    29 has       5792 integration points.
  Task    30 has       5844 integration points.
  Task    31 has       5834 integration points.
  Task    32 has       5847 integration points.
  Task    33 has       5841 integration points.
  Task    34 has       5808 integration points.
  Task    35 has       5844 integration points.
  Task    36 has       5824 integration points.
  Task    37 has       5789 integration points.
  Task    38 has       5843 integration points.
  Task    39 has       5811 integration points.
  Task    40 has       5845 integration points.
  Task    41 has       5849 integration points.
  Task    42 has       5817 integration points.
  Task    43 has       5848 integration points.
  Task    44 has       5811 integration points.
  Task    45 has       5841 integration points.
  Task    46 has       5788 integration points.
  Task    47 has       5794 integration points.
  Task    48 has       5790 integration points.
  Task    49 has       5833 integration points.
  Task    50 has       5810 integration points.
  Task    51 has       5825 integration points.
  Task    52 has       5808 integration points.
  Task    53 has       5802 integration points.
  Task    54 has       5791 integration points.
  Task    55 has       5851 integration points.
  Initializing partition tables, free-atom densities, potentials, etc. across the integration grid (initialize_grid_storage).
  | initialize_grid_storage: Actual outermost partition radius vs. multipole_radius_free
  | (-- VB: in principle, multipole_radius_free should be larger, hence this output)
  | Species        1: Confinement radius =              4.999999999999999 AA, multipole_radius_free =              5.054417573612229 AA.
  | Species        1: outer_partition_radius set to              5.054417573612229 AA .
  | Species        2: Confinement radius =              4.999999999999999 AA, multipole_radius_free =              5.019602836301480 AA.
  | Species        2: outer_partition_radius set to              5.019602836301480 AA .
  | Species        3: Confinement radius =              4.999999999999999 AA, multipole_radius_free =              5.043624274424571 AA.
  | Species        3: outer_partition_radius set to              5.043624274424571 AA .
  | Species        4: Confinement radius =              4.999999999999999 AA, multipole_radius_free =              5.048384829883283 AA.
  | Species        4: outer_partition_radius set to              5.048384829883283 AA .
  | Original list of interatomic distances with        1134 x       1134 entries is created.
  | Net number of integration points:   325952
  | of which are non-zero points    :   265023
  | Numerical average free-atom electrostatic potential    :     -1.11025996 eV
  Renormalizing the initial density to the exact electron count on the 3D integration grid.
  | Initial density: Formal number of electrons (from input files) :     304.0000000000
  | Integrated number of electrons on 3D grid     :     303.9992716672
  | Charge integration error                      :      -0.0007283328
  | Normalization factor for density and gradient :       1.0000023958
  Renormalizing the free-atom superposition density to the exact electron count on the 3D integration grid.
  | Formal number of electrons (from input files) :     304.0000000000
  | Integrated number of electrons on 3D grid     :     303.9992716672
  | Charge integration error                      :      -0.0007283328
  | Normalization factor for density and gradient :       1.0000023958
  Obtaining max. number of non-zero basis functions in each batch (get_n_compute_maxes).
  | Maximal number of non-zero basis functions:      532 in task     0
  | Maximal number of non-zero basis functions:      521 in task     1
  | Maximal number of non-zero basis functions:      516 in task     2
  | Maximal number of non-zero basis functions:      569 in task     3
  | Maximal number of non-zero basis functions:      538 in task     4
  | Maximal number of non-zero basis functions:      522 in task     5
  | Maximal number of non-zero basis functions:      535 in task     6
  | Maximal number of non-zero basis functions:      533 in task     7
  | Maximal number of non-zero basis functions:      539 in task     8
  | Maximal number of non-zero basis functions:      524 in task     9
  | Maximal number of non-zero basis functions:      537 in task    10
  | Maximal number of non-zero basis functions:      545 in task    11
  | Maximal number of non-zero basis functions:      551 in task    12
  | Maximal number of non-zero basis functions:      580 in task    13
  | Maximal number of non-zero basis functions:      522 in task    14
  | Maximal number of non-zero basis functions:      496 in task    15
  | Maximal number of non-zero basis functions:      519 in task    16
  | Maximal number of non-zero basis functions:      542 in task    17
  | Maximal number of non-zero basis functions:      539 in task    18
  | Maximal number of non-zero basis functions:      518 in task    19
  | Maximal number of non-zero basis functions:      568 in task    20
  | Maximal number of non-zero basis functions:      534 in task    21
  | Maximal number of non-zero basis functions:      531 in task    22
  | Maximal number of non-zero basis functions:      539 in task    23
  | Maximal number of non-zero basis functions:      504 in task    24
  | Maximal number of non-zero basis functions:      524 in task    25
  | Maximal number of non-zero basis functions:      528 in task    26
  | Maximal number of non-zero basis functions:      521 in task    27
  | Maximal number of non-zero basis functions:      554 in task    28
  | Maximal number of non-zero basis functions:      553 in task    29
  | Maximal number of non-zero basis functions:      536 in task    30
  | Maximal number of non-zero basis functions:      528 in task    31
  | Maximal number of non-zero basis functions:      515 in task    32
  | Maximal number of non-zero basis functions:      513 in task    33
  | Maximal number of non-zero basis functions:      535 in task    34
  | Maximal number of non-zero basis functions:      510 in task    35
  | Maximal number of non-zero basis functions:      569 in task    36
  | Maximal number of non-zero basis functions:      522 in task    37
  | Maximal number of non-zero basis functions:      526 in task    38
  | Maximal number of non-zero basis functions:      523 in task    39
  | Maximal number of non-zero basis functions:      535 in task    40
  | Maximal number of non-zero basis functions:      536 in task    41
  | Maximal number of non-zero basis functions:      527 in task    42
  | Maximal number of non-zero basis functions:      532 in task    43
  | Maximal number of non-zero basis functions:      525 in task    44
  | Maximal number of non-zero basis functions:      532 in task    45
  | Maximal number of non-zero basis functions:      524 in task    46
  | Maximal number of non-zero basis functions:      529 in task    47
  | Maximal number of non-zero basis functions:      547 in task    48
  | Maximal number of non-zero basis functions:      536 in task    49
  | Maximal number of non-zero basis functions:      555 in task    50
  | Maximal number of non-zero basis functions:      545 in task    51
  | Maximal number of non-zero basis functions:      518 in task    52
  | Maximal number of non-zero basis functions:      513 in task    53
  | Maximal number of non-zero basis functions:      500 in task    54
  | Maximal number of non-zero basis functions:      520 in task    55
  Allocating        3.277 MB for KS_eigenvector_complex
  Integrating Hamiltonian matrix: batch-based integration.
  Time summed over all CPUs for integration: real work       27.824 s, elapsed       28.858 s
  Integrating overlap matrix.
  Time summed over all CPUs for integration: real work       20.656 s, elapsed       21.129 s
  Decreasing sparse matrix size:
   Tolerance:  9.999999824516700E-014
   Hamiltonian matrix
  | Array has   610073 nonzero elements out of   674172 elements
  | Sparsity factor is 0.095
   Overlap matrix
  | Array has   573323 nonzero elements out of   674172 elements
  | Sparsity factor is 0.150
  New size of hamiltonian matrix:      610076
  Deallocating overlap matrix.

  Updating Kohn-Sham eigenvalues and eigenvectors using ELSI and the ELPA eigensolver.
  Overlap matrix is not singular
  | Lowest eigenvalue of overlap  :  0.18E-02
  | Highest eigenvalue of overlap :  0.85E+01
  Finished singularity check of overlap matrix
  | Time :     0.069 s
  Finished Cholesky decomposition
  | Time :     0.017 s
  Finished transformation to standard eigenproblem
  | Time :     0.039 s
  Starting ELPA eigensolver
  Finished solving standard eigenproblem
  | Time :     0.121 s
  Finished back-transformation of eigenvectors
  | Time :     0.017 s

  Obtaining occupation numbers and chemical potential using ELSI.
  | Chemical potential (Fermi level):    -8.44966598 eV
  Writing Kohn-Sham eigenvalues.
  K-point:       1 at    0.000000    0.000000    0.000000 (in units of recip. lattice)

  State    Occupation    Eigenvalue [Ha]    Eigenvalue [eV]
      1       2.00000         -18.978612         -516.43431
      2       2.00000         -18.978428         -516.42929
      3       2.00000         -18.978171         -516.42231
      4       2.00000         -18.978169         -516.42226
      5       2.00000         -18.978005         -516.41778
      6       2.00000         -18.977972         -516.41689
      7       2.00000         -18.977528         -516.40482
      8       2.00000         -18.977413         -516.40170
      9       2.00000         -18.977085         -516.39275
     10       2.00000         -18.977010         -516.39071
     11       2.00000         -18.976642         -516.38070
     12       2.00000         -18.976627         -516.38028
     13       2.00000         -18.976283         -516.37094
     14       2.00000         -18.976277         -516.37077
     15       2.00000         -18.976217         -516.36914
     16       2.00000         -18.976073         -516.36521
     17       2.00000         -14.237822         -387.43085
     18       2.00000         -14.237812         -387.43057
     19       2.00000         -14.237741         -387.42865
     20       2.00000         -14.237711         -387.42783
     21       2.00000         -14.237690         -387.42727
     22       2.00000         -14.237680         -387.42700
     23       2.00000         -14.237557         -387.42364
     24       2.00000         -14.237497         -387.42200
     25       2.00000         -14.237480         -387.42154
     26       2.00000         -14.237473         -387.42135
     27       2.00000         -14.237444         -387.42057
     28       2.00000         -14.237410         -387.41963
     29       2.00000         -14.233863         -387.32312
     30       2.00000         -14.233824         -387.32205
     31       2.00000         -14.233636         -387.31695
     32       2.00000         -14.233574         -387.31526
     33       2.00000         -10.156930         -276.38412
     34       2.00000         -10.156718         -276.37836
     35       2.00000         -10.156660         -276.37677
     36       2.00000         -10.156579         -276.37457
     37       2.00000         -10.156454         -276.37117
     38       2.00000         -10.156438         -276.37075
     39       2.00000         -10.156427         -276.37044
     40       2.00000         -10.156382         -276.36922
     41       2.00000          -1.213554          -33.02248
     42       2.00000          -1.212530          -32.99462
     43       2.00000          -1.211074          -32.95500
     44       2.00000          -1.210885          -32.94985
     45       2.00000          -1.208670          -32.88957
     46       2.00000          -1.208502          -32.88501
     47       2.00000          -1.207793          -32.86573
     48       2.00000          -1.207415          -32.85543
     49       2.00000          -1.067007          -29.03475
     50       2.00000          -1.066453          -29.01966
     51       2.00000          -1.065831          -29.00275
     52       2.00000          -1.065722          -28.99978
     53       2.00000          -1.062994          -28.92553
     54       2.00000          -1.062897          -28.92289
     55       2.00000          -1.062262          -28.90562
     56       2.00000          -1.062180          -28.90339
     57       2.00000          -1.041758          -28.34768
     58       2.00000          -1.041053          -28.32849
     59       2.00000          -1.001193          -27.24385
     60       2.00000          -1.000061          -27.21303
     61       2.00000          -0.998446          -27.16910
     62       2.00000          -0.998296          -27.16502
     63       2.00000          -0.950815          -25.87300
     64       2.00000          -0.950399          -25.86166
     65       2.00000          -0.831633          -22.62989
     66       2.00000          -0.831567          -22.62809
     67       2.00000          -0.806924          -21.95751
     68       2.00000          -0.804093          -21.88047
     69       2.00000          -0.796979          -21.68691
     70       2.00000          -0.796830          -21.68285
     71       2.00000          -0.790148          -21.50102
     72       2.00000          -0.787487          -21.42861
     73       2.00000          -0.706420          -19.22267
     74       2.00000          -0.704751          -19.17724
     75       2.00000          -0.691592          -18.81918
     76       2.00000          -0.690901          -18.80037
     77       2.00000          -0.669852          -18.22760
     78       2.00000          -0.668574          -18.19281
     79       2.00000          -0.651750          -17.73503
     80       2.00000          -0.648668          -17.65114
     81       2.00000          -0.632117          -17.20078
     82       2.00000          -0.629897          -17.14038
     83       2.00000          -0.627853          -17.08474
     84       2.00000          -0.625292          -17.01507
     85       2.00000          -0.624507          -16.99371
     86       2.00000          -0.624087          -16.98227
     87       2.00000          -0.617402          -16.80036
     88       2.00000          -0.615686          -16.75367
     89       2.00000          -0.602036          -16.38224
     90       2.00000          -0.600759          -16.34748
     91       2.00000          -0.591061          -16.08360
     92       2.00000          -0.590171          -16.05937
     93       2.00000          -0.586676          -15.96426
     94       2.00000          -0.586109          -15.94883
     95       2.00000          -0.581759          -15.83047
     96       2.00000          -0.577805          -15.72287
     97       2.00000          -0.572527          -15.57924
     98       2.00000          -0.570907          -15.53518
     99       2.00000          -0.570333          -15.51955
    100       2.00000          -0.566435          -15.41349
    101       2.00000          -0.554384          -15.08554
    102       2.00000          -0.553554          -15.06297
    103       2.00000          -0.553418          -15.05927
    104       2.00000          -0.553220          -15.05388
    105       2.00000          -0.547631          -14.90180
    106       2.00000          -0.545148          -14.83423
    107       2.00000          -0.543645          -14.79334
    108       2.00000          -0.543504          -14.78949
    109       2.00000          -0.533856          -14.52695
    110       2.00000          -0.529763          -14.41559
    111       2.00000          -0.523442          -14.24358
    112       2.00000          -0.522949          -14.23017
    113       2.00000          -0.518540          -14.11019
    114       2.00000          -0.517638          -14.08565
    115       2.00000          -0.513144          -13.96336
    116       2.00000          -0.511938          -13.93053
    117       2.00000          -0.502962          -13.68629
    118       2.00000          -0.501602          -13.64929
    119       2.00000          -0.499930          -13.60380
    120       2.00000          -0.499428          -13.59012
    121       2.00000          -0.420873          -11.45255
    122       2.00000          -0.420692          -11.44762
    123       2.00000          -0.404255          -11.00033
    124       2.00000          -0.403778          -10.98737
    125       2.00000          -0.400691          -10.90337
    126       2.00000          -0.400666          -10.90269
    127       2.00000          -0.396595          -10.79189
    128       2.00000          -0.396187          -10.78078
    129       2.00000          -0.394046          -10.72253
    130       2.00000          -0.393188          -10.69920
    131       2.00000          -0.389825          -10.60766
    132       2.00000          -0.388988          -10.58491
    133       2.00000          -0.388394          -10.56873
    134       2.00000          -0.388363          -10.56789
    135       2.00000          -0.386113          -10.50668
    136       2.00000          -0.384121          -10.45247
    137       2.00000          -0.375665          -10.22236
    138       2.00000          -0.375260          -10.21135
    139       2.00000          -0.374686          -10.19571
    140       2.00000          -0.374404          -10.18805
    141       2.00000          -0.373022          -10.15045
    142       2.00000          -0.372122          -10.12595
    143       2.00000          -0.371911          -10.12021
    144       2.00000          -0.370247          -10.07494
    145       2.00000          -0.368936          -10.03925
    146       2.00000          -0.368097          -10.01643
    147       2.00000          -0.354440           -9.64480
    148       2.00000          -0.353206           -9.61123
    149       2.00000          -0.345482           -9.40103
    150       2.00000          -0.344771           -9.38169
    151       2.00000          -0.339654           -9.24246
    152       2.00000          -0.336361           -9.15284
    153       0.00000          -0.164883           -4.48670
    154       0.00000          -0.163740           -4.45559
    155       0.00000          -0.163255           -4.44238
    156       0.00000          -0.162268           -4.41555
    157       0.00000          -0.160074           -4.35583
    158       0.00000          -0.158643           -4.31690
    159       0.00000          -0.154450           -4.20280
    160       0.00000          -0.153060           -4.16497
    161       0.00000          -0.072830           -1.98180
    162       0.00000          -0.059189           -1.61062
    163       0.00000          -0.040183           -1.09344
    164       0.00000          -0.034502           -0.93884
    165       0.00000          -0.033004           -0.89808
    166       0.00000          -0.030486           -0.82957
    167       0.00000          -0.027866           -0.75828
    168       0.00000          -0.026182           -0.71244
    169       0.00000          -0.023576           -0.64154
    170       0.00000          -0.019606           -0.53351
    171       0.00000          -0.018944           -0.51550
    172       0.00000          -0.008701           -0.23676
    173       0.00000          -0.002821           -0.07675
    174       0.00000           0.001095            0.02979
    175       0.00000           0.003636            0.09893
    176       0.00000           0.008676            0.23607
    177       0.00000           0.016388            0.44593
    178       0.00000           0.018203            0.49532
    179       0.00000           0.022124            0.60202
    180       0.00000           0.027319            0.74337
    181       0.00000           0.027842            0.75762
    182       0.00000           0.033281            0.90563
    183       0.00000           0.035202            0.95789
    184       0.00000           0.049743            1.35358
    185       0.00000           0.055363            1.50650
    186       0.00000           0.058459            1.59076
    187       0.00000           0.060830            1.65526
    188       0.00000           0.065575            1.78438
    189       0.00000           0.066955            1.82193
    190       0.00000           0.077691            2.11408
    191       0.00000           0.079100            2.15242
    192       0.00000           0.085072            2.31492
    193       0.00000           0.086973            2.36667
    194       0.00000           0.097835            2.66221
    195       0.00000           0.105034            2.85813
    196       0.00000           0.106465            2.89707
    197       0.00000           0.109502            2.97971
    198       0.00000           0.110522            3.00745
    199       0.00000           0.110673            3.01158
    200       0.00000           0.119959            3.26425
    201       0.00000           0.124057            3.37577
    202       0.00000           0.124569            3.38969
    203       0.00000           0.130931            3.56282
[...]
  |                                 -0.01528048       0.02932201       0.01748957
  |                                  0.00247487       0.01748957       0.02790973
  ----------------------------------------------------------------------
  | Atom    43: O
  |   Hirshfeld charge        :     -0.15713512
  |   Free atom volume        :     23.60491416
  |   Hirshfeld volume        :     21.71719458
  |   Hirshfeld dipole vector :     -0.03588351       0.01742366      -0.00753008
  |   Hirshfeld dipole moment :      0.04059449
  |   Hirshfeld second moments:      0.04990227      -0.01555174      -0.00250425
  |                                 -0.01555174       0.02893071      -0.01746801
  |                                 -0.00250425      -0.01746801       0.02768056
  ----------------------------------------------------------------------
  | Atom    44: O
  |   Hirshfeld charge        :     -0.16431006
  |   Free atom volume        :     23.60491416
  |   Hirshfeld volume        :     22.31298046
  |   Hirshfeld dipole vector :      0.00954515       0.04867273       0.03572992
  |   Hirshfeld dipole moment :      0.06112915
  |   Hirshfeld second moments:     -0.00275465      -0.00363411      -0.03024281
  |                                 -0.00363411       0.04378540       0.00152787
  |                                 -0.03024281       0.00152787       0.01368350
  ----------------------------------------------------------------------
  | Atom    45: O
  |   Hirshfeld charge        :     -0.14000218
  |   Free atom volume        :     23.60491416
  |   Hirshfeld volume        :     21.63807074
  |   Hirshfeld dipole vector :      0.00734723      -0.03288431       0.01081504
  |   Hirshfeld dipole moment :      0.03538820
  |   Hirshfeld second moments:      0.01830915      -0.00020254       0.01412213
  |                                 -0.00020254       0.06090062      -0.01233900
  |                                  0.01412213      -0.01233900       0.04251640
  ----------------------------------------------------------------------
  | Atom    46: O
  |   Hirshfeld charge        :     -0.14124687
  |   Free atom volume        :     23.60491416
  |   Hirshfeld volume        :     21.65872827
  |   Hirshfeld dipole vector :      0.00697208      -0.03325229      -0.01122748
  |   Hirshfeld dipole moment :      0.03578241
  |   Hirshfeld second moments:      0.01734748      -0.00013929      -0.01399399
  |                                 -0.00013929       0.06039088       0.01256930
  |                                 -0.01399399       0.01256930       0.04171592
  ----------------------------------------------------------------------
  | Atom    47: O
  |   Hirshfeld charge        :     -0.16041318
  |   Free atom volume        :     23.60491416
  |   Hirshfeld volume        :     22.12668700
  |   Hirshfeld dipole vector :      0.02340673      -0.03289042       0.03934171
  |   Hirshfeld dipole moment :      0.05636865
  |   Hirshfeld second moments:     -0.01264551       0.01094486      -0.00003108
  |                                  0.01094486       0.04655889      -0.00172962
  |                                 -0.00003108      -0.00172962       0.03818897
  ----------------------------------------------------------------------
  | Atom    48: O
  |   Hirshfeld charge        :     -0.15432761
  |   Free atom volume        :     23.60491416
  |   Hirshfeld volume        :     21.83225972
  |   Hirshfeld dipole vector :     -0.01951242       0.03409284       0.02423157
  |   Hirshfeld dipole moment :      0.04615436
  |   Hirshfeld second moments:     -0.00887120       0.00820281      -0.00310291
  |                                  0.00820281       0.04938347       0.00350122
  |                                 -0.00310291       0.00350122       0.05930552
  ----------------------------------------------------------------------
  | Atom    49: O
  |   Hirshfeld charge        :     -0.15488540
  |   Free atom volume        :     23.60491416
  |   Hirshfeld volume        :     21.84146794
  |   Hirshfeld dipole vector :     -0.01977190       0.03436845      -0.02438920
  |   Hirshfeld dipole moment :      0.04655053
  |   Hirshfeld second moments:     -0.00908295       0.00820891       0.00345478
  |                                  0.00820891       0.04880991      -0.00347026
  |                                  0.00345478      -0.00347026       0.05903382
  ----------------------------------------------------------------------
  | Atom    50: O
  |   Hirshfeld charge        :     -0.17167569
  |   Free atom volume        :     23.60491416
  |   Hirshfeld volume        :     21.91878822
  |   Hirshfeld dipole vector :      0.04151470      -0.00435466      -0.03047654
  |   Hirshfeld dipole moment :      0.05168416
  |   Hirshfeld second moments:      0.04339688       0.02745667      -0.00839900
  |                                  0.02745667       0.00999423       0.01306094
  |                                 -0.00839900       0.01306094       0.03246572
  ----------------------------------------------------------------------
  | Atom    51: O
  |   Hirshfeld charge        :     -0.16208947
  |   Free atom volume        :     23.60491416
  |   Hirshfeld volume        :     21.88602708
  |   Hirshfeld dipole vector :     -0.04033680       0.00557700       0.03114819
  |   Hirshfeld dipole moment :      0.05126763
  |   Hirshfeld second moments:      0.04736434       0.03026537      -0.00446019
  |                                  0.03026537       0.01258961       0.01359613
  |                                 -0.00446019       0.01359613       0.03164939
  ----------------------------------------------------------------------
  | Atom    52: O
  |   Hirshfeld charge        :     -0.17044411
  |   Free atom volume        :     23.60491416
  |   Hirshfeld volume        :     21.90146838
  |   Hirshfeld dipole vector :      0.04116637      -0.00465387       0.03032057
  |   Hirshfeld dipole moment :      0.05133873
  |   Hirshfeld second moments:      0.04432663       0.02740900       0.00820024
  |                                  0.02740900       0.01062382      -0.01320689
  |                                  0.00820024      -0.01320689       0.03285817
  ----------------------------------------------------------------------
  | Atom    53: O
  |   Hirshfeld charge        :     -0.17888099
  |   Free atom volume        :     23.60491416
  |   Hirshfeld volume        :     22.30634542
  |   Hirshfeld dipole vector :      0.04744152      -0.01916373      -0.02798130
  |   Hirshfeld dipole moment :      0.05831723
  |   Hirshfeld second moments:      0.04351513      -0.01863427       0.01406910
  |                                 -0.01863427       0.00324244       0.02285064
  |                                  0.01406910       0.02285064       0.00168444
  ----------------------------------------------------------------------
  | Atom    54: O
  |   Hirshfeld charge        :     -0.16440687
  |   Free atom volume        :     23.60491416
  |   Hirshfeld volume        :     22.31249187
  |   Hirshfeld dipole vector :      0.00948284       0.04863168      -0.03594487
  |   Hirshfeld dipole moment :      0.06121273
  |   Hirshfeld second moments:     -0.00264831      -0.00374074       0.03035843
  |                                 -0.00374074       0.04377904      -0.00146624
  |                                  0.03035843      -0.00146624       0.01359919
  ----------------------------------------------------------------------
  | Atom    55: O
  |   Hirshfeld charge        :     -0.16030479
  |   Free atom volume        :     23.60491416
  |   Hirshfeld volume        :     22.12489616
  |   Hirshfeld dipole vector :      0.02317006      -0.03266931      -0.03947694
  |   Hirshfeld dipole moment :      0.05623668
  |   Hirshfeld second moments:     -0.01276460       0.01094848       0.00039171
  |                                  0.01094848       0.04700177       0.00172790
  |                                  0.00039171       0.00172790       0.03815453
  ----------------------------------------------------------------------
  | Atom    56: O
  |   Hirshfeld charge        :     -0.16133667
  |   Free atom volume        :     23.60491416
  |   Hirshfeld volume        :     21.87402177
  |   Hirshfeld dipole vector :     -0.04002642       0.00598314      -0.03107766
  |   Hirshfeld dipole moment :      0.05102679
  |   Hirshfeld second moments:      0.04805198       0.03028637       0.00434617
  |                                  0.03028637       0.01297093      -0.01367298
  |                                  0.00434617      -0.01367298       0.03189924
  ----------------------------------------------------------------------

  Converging periodic supercell size for vdw calculation.
  Convergence accuracy (and time!) can be adjusted using the vdw_convergence_threshold keyword.
  | Shell number:     1
  |   VDW energy change:  -0.182190E+01 eV.
  |   Not converged.
  | Shell number:     2
  |   VDW energy change:  -0.258173E-01 eV.
  |   Not converged.
  | Shell number:     3
  |   VDW energy change:  -0.265232E-02 eV.
  |   Not converged.
  | Shell number:     4
  |   VDW energy change:  -0.584633E-03 eV.
  |   Not converged.
  | Shell number:     5
  |   VDW energy change:  -0.186084E-03 eV.
  |   Not converged.
  | Shell number:     6
  |   VDW energy change:  -0.741288E-04 eV.
  |   Not converged.
  | Shell number:     7
  |   VDW energy change:  -0.344676E-04 eV.
  |   Not converged.
  | Shell number:     8
  |   VDW energy change:  -0.179738E-04 eV.
  |   Not converged.
  | Shell number:     9
  |   VDW energy change:  -0.102455E-04 eV.
  |   Not converged.
  | Shell number:    10
  |   VDW energy change:  -0.626964E-05 eV.
  |   Not converged.
  | Shell number:    11
  |   VDW energy change:  -0.406321E-05 eV.
  |   Not converged.
  | Shell number:    12
  |   VDW energy change:  -0.275934E-05 eV.
  |   Not converged.
  | Shell number:    13
  |   VDW energy change:  -0.194713E-05 eV.
  |   Not converged.
  | Shell number:    14
  |   VDW energy change:  -0.141815E-05 eV.
  |   Not converged.
  | Shell number:    15
  |   VDW energy change:  -0.106041E-05 eV.
  |   Not converged.
  | Shell number:    16
  |   VDW energy change:  -0.810611E-06 eV.
  |   Converged.

  Total energy components:
  | Sum of eigenvalues            :       -1351.02568074 Ha      -36763.27926808 eV
  | XC energy correction          :        -294.79464303 Ha       -8021.77038001 eV
  | XC potential correction       :         379.06001990 Ha       10314.74795020 eV
  | Free-atom electrostatic energy:       -1107.53296357 Ha      -30137.50531810 eV
  | Hartree energy correction     :         -19.85316320 Ha        -540.23205741 eV
  | vdW energy correction         :          -0.10121006 Ha          -2.75406588 eV
  | Entropy correction            :          -0.00000000 Ha          -0.00000000 eV
  | ---------------------------
  | Total energy                  :       -2394.24764070 Ha      -65150.79313927 eV
  | Total energy, T -> 0          :       -2394.24764070 Ha      -65150.79313927 eV  <-- do not rely on this value for anything but (periodic) metals
  | Electronic free energy        :       -2394.24764070 Ha      -65150.79313927 eV

  Derived energy quantities:
  | Kinetic energy                :        2390.27597491 Ha       65042.71861429 eV
  | Electrostatic energy          :       -4489.62776251 Ha     -122168.98730767 eV
  | Energy correction for multipole
  | error in Hartree potential    :           0.42020870 Ha          11.43446045 eV
  | Sum of eigenvalues per atom                           :        -656.48712979 eV
  | Total energy (T->0) per atom                          :       -1163.40702034 eV  <-- do not rely on this value for anything but (periodic) metals
  | Electronic free energy per atom                       :       -1163.40702034 eV
  Timings for VdW correction (Tkatchenko-Scheffler 2009 or later):
  | CPU time:        1.105 s, Wall clock time:        1.105 s.

  Energy and forces in a compact form:
  | Total energy uncorrected      :         -0.651507931392694E+05 eV
  | Total energy corrected        :         -0.651507931392694E+05 eV  <-- do not rely on this value for anything but (periodic) metals
  | Electronic free energy        :         -0.651507931392694E+05 eV

  ------------------------------------ 
  Start decomposition of the XC Energy 
  ------------------------------------ 
  X and C from original XC functional choice 
  Hartree-Fock Energy :          0.000000000 Ha              0.000000000 eV
  X Energy            :       -284.269201841 Ha          -7735.358552812 eV
  C Energy            :        -10.525441188 Ha           -286.411827198 eV
  Total XC Energy     :       -294.794643029 Ha          -8021.770380010 eV
  ------------------------------------ 
  LDA X and C from self-consistent density 
  X Energy LDA        :       -258.569146183 Ha          -7036.024456630 eV
  C Energy LDA        :        -20.616857369 Ha           -561.013233043 eV
  ------------------------------------ 
  End decomposition of the XC Energy 
  ------------------------------------ 

------------------------------------------------------------

------------------------------------------------------------------------------
  Final output of selected total energy values:

  The following output summarizes some interesting total energy values
  at the end of a run (AFTER all relaxation, molecular dynamics, etc.).

  | Total energy of the DFT / Hartree-Fock s.c.f. calculation      :         -65150.793139269 eV
  | Final zero-broadening corrected energy (caution - metals only) :         -65150.793139269 eV
  | For reference only, the value of 1 Hartree used in FHI-aims is :             27.211384500 eV

  Before relying on these values, please be sure to understand exactly which
  total energy value is referred to by a given number. Different objects may
  all carry the same name 'total energy'. Definitions:

  Total energy of the DFT / Hartree-Fock s.c.f. calculation:
  | Note that this energy does not include ANY quantities calculated after the
  | s.c.f. cycle, in particular not ANY RPA, MP2, etc. many-body perturbation terms.

  Final zero-broadening corrected energy:
  | For metallic systems only, a broadening of the occupation numbers at the Fermi
  | level can be extrapolated back to zero broadening by an electron-gas inspired
  | formula. For all systems that are not real metals, this value can be
  | meaningless and should be avoided.

------------------------------------------------------------------------------
  Methods described in the following list of references were used in this FHI-aims run.
  If you publish the results, please make sure to cite these reference if they apply.
  FHI-aims is an academic code, and for our developers (often, Ph.D. students
  and postdocs), scientific credit in the community is essential.
  Thank you for helping us!

  For any use of FHI-aims, please cite:

    Volker Blum, Ralf Gehrke, Felix Hanke, Paula Havu, Ville Havu,
    Xinguo Ren, Karsten Reuter, and Matthias Scheffler
    'Ab initio molecular simulations with numeric atom-centered orbitals'
    Computer Physics Communications 180, 2175-2196 (2009)
    http://dx.doi.org/10.1016/j.cpc.2009.06.022


  The scalable eigensolver library ELPA was used in your run.
  ELPA is essential especially for large systems on hundreds or thousands of CPUs.
  For ELPA, please cite:

    Andreas Marek, Volker Blum, Rainer Johanni, Ville Havu, Bruno Lang,
    Thomas Auckenthaler, Alexander Heinecke, Hans-Joachim Bungartz, and Hermann Lederer,
    'The ELPA Library - Scalable Parallel Eigenvalue Solutions
    for Electronic Structure Theory and Computational Science'
    The Journal of Physics: Condensed Matter 26, 213201 (2014).
    http://dx.doi.org/10.1088/0953-8984/26/21/213201


  The ELSI infrastructure was used in your run to solve the Kohn-Sham electronic structure.
  Please check out http://elsi-interchange.org to learn more.
  If scalability is important for your project, please acknowledge ELSI by citing:

    V. W-z. Yu, F. Corsetti, A. Garcia, W. P. Huhn, M. Jacquelin, W. Jia,
    B. Lange, L. Lin, J. Lu, W. Mi, A. Seifitokaldani, A. Vazquez-Mayagoitia,
    C. Yang, H. Yang, and V. Blum
    'ELSI: A unified software interface for Kohn-Sham electronic structure solvers'
    Computer Physics Communications 222, 267-285 (2018).
    http://dx.doi.org/10.1016/j.cpc.2017.09.007


  For the real-space grid partitioning and parallelization used in this calculation, please cite:

    Ville Havu, Volker Blum, Paula Havu, and Matthias Scheffler,
    'Efficient O(N) integration for all-electron electronic structure calculation'
    'using numerically tabulated basis functions'
    Journal of Computational Physics 228, 8367-8379 (2009).
    http://dx.doi.org/10.1016/j.jcp.2009.08.008

  Of course, there are many other important community references, e.g., those cited in the
  above references. Our list is limited to references that describe implementations in the
  FHI-aims code. The reason is purely practical (length of this list) - please credit others as well.

------------------------------------------------------------
          Leaving FHI-aims.
          Date     :  20200214, Time     :  043744.006

          Computational steps:
          | Number of self-consistency cycles          :           19
          | Number of SCF (re)initializations          :            1

          Detailed time accounting                     :  max(cpu_time)    wall_clock(cpu1)
          | Total time                                 :       85.905 s          85.961 s
          | Preparation time                           :        0.260 s           0.247 s
          | Boundary condition initalization           :        1.175 s           1.176 s
          | Grid partitioning                          :        0.720 s           0.721 s
          | Preloading free-atom quantities on grid    :        0.010 s           0.009 s
          | Free-atom superposition energy             :        0.114 s           0.113 s
          | Total time for integrations                :       10.977 s          10.976 s
          | Total time for solution of K.-S. equations :        4.786 s           4.789 s
          | Total time for density update              :       16.958 s          16.895 s
          | Total time for mixing & preconditioning    :       20.663 s          20.668 s
          | Total time for Hartree multipole update    :        0.074 s           0.081 s
          | Total time for Hartree multipole sum       :       28.146 s          28.150 s
          | Total time for total energy evaluation     :        0.012 s           0.034 s
          | Total time for scaled ZORA corrections     :        0.000 s           0.000 s
          | Total time for vdW correction              :        1.105 s           1.105 s

          Partial memory accounting:
          | Residual value for overall tracked memory usage across tasks :         790.159 MB (should be 0.000 MB)
          |
          | Largest tracked array allocation (overlap_matrix):
          |   Minimum:        5.393 MB (on task  1)
          |   Maximum:        5.393 MB (on task  1)
          |   Average:        5.393 MB
          |
          | Because the residual tracked memory usage was not zero, the peak value for overall
          | tracked memory usage was not output, as it is probably incorrect.  This is likely due
          | to a missing aims_deallocate statement in the source code, which should be otherwise
          | harmless.
          |
          Note:  These values currently only include a subset of arrays which are explicitly tracked.
          The "true" memory usage will be greater.

          Have a nice day.
------------------------------------------------------------
