  MPI-parallelism will be employed.
------------------------------------------------------------
          Invoking FHI-aims ...
          Version 180424
          Compiled on 2018/04/28 at 19:12:01 on host coe.psc.edu.

          When using FHI-aims, please cite the following reference:

          Volker Blum, Ralf Gehrke, Felix Hanke, Paula Havu,
          Ville Havu, Xinguo Ren, Karsten Reuter, and Matthias Scheffler,
          'Ab Initio Molecular Simulations with Numeric Atom-Centered Orbitals',
          Computer Physics Communications 180, 2175-2196 (2009)

          For any questions about FHI-aims, please visit the aimsclub website
          with its forums and wiki. Contributions to both the forums and the
          wiki are warmly encouraged - they are for you, and everyone is welcome there.

------------------------------------------------------------



  Date     :  20200214, Time     :  115514.192
  Time zero on CPU 1             :   0.437800000000000E-01  s.
  Internal wall clock time zero  :           350913314.192  s.

  FHI-aims created a unique identifier for this run for later identification
  aims_uuid : 0266956B-0803-4082-A495-039C1952C36F

  Using       56 parallel tasks.
  Task        0 on host d020 reporting.
  Task        1 on host d020 reporting.
  Task        2 on host d020 reporting.
  Task        3 on host d020 reporting.
  Task        4 on host d020 reporting.
  Task        5 on host d020 reporting.
  Task        6 on host d020 reporting.
  Task        7 on host d020 reporting.
  Task        8 on host d020 reporting.
  Task        9 on host d020 reporting.
  Task       10 on host d020 reporting.
  Task       11 on host d020 reporting.
  Task       12 on host d020 reporting.
  Task       13 on host d020 reporting.
  Task       14 on host d020 reporting.
  Task       15 on host d020 reporting.
  Task       16 on host d020 reporting.
  Task       17 on host d020 reporting.
  Task       18 on host d020 reporting.
  Task       19 on host d020 reporting.
  Task       20 on host d020 reporting.
  Task       21 on host d020 reporting.
  Task       22 on host d020 reporting.
  Task       23 on host d020 reporting.
  Task       24 on host d020 reporting.
  Task       25 on host d020 reporting.
  Task       26 on host d020 reporting.
  Task       27 on host d020 reporting.
  Task       28 on host d020 reporting.
  Task       29 on host d020 reporting.
  Task       30 on host d020 reporting.
  Task       31 on host d020 reporting.
  Task       32 on host d020 reporting.
  Task       33 on host d020 reporting.
  Task       34 on host d020 reporting.
  Task       35 on host d020 reporting.
  Task       36 on host d020 reporting.
  Task       37 on host d020 reporting.
  Task       38 on host d020 reporting.
  Task       39 on host d020 reporting.
  Task       40 on host d020 reporting.
  Task       41 on host d020 reporting.
  Task       42 on host d020 reporting.
  Task       43 on host d020 reporting.
  Task       44 on host d020 reporting.
  Task       45 on host d020 reporting.
  Task       46 on host d020 reporting.
  Task       47 on host d020 reporting.
  Task       48 on host d020 reporting.
  Task       49 on host d020 reporting.
  Task       50 on host d020 reporting.
  Task       51 on host d020 reporting.
  Task       52 on host d020 reporting.
  Task       53 on host d020 reporting.
  Task       54 on host d020 reporting.
  Task       55 on host d020 reporting.

  Performing system and environment tests:
  *** Environment variable OMP_NUM_THREADS is not set
  *** For performance reasons you might want to set it to 1
  | Stacksize not measured: no C compiler
  | Checking for scalapack...
  | Testing pdtran()...
  | All pdtran() tests passed.

  Obtaining array dimensions for all initial allocations:
  
  -----------------------------------------------------------------------
  Parsing control.in (first pass over file, find array dimensions only).
  The contents of control.in will be repeated verbatim below
  unless switched off by setting 'verbatim_writeout .false.' .
  in the first line of control.in .
  -----------------------------------------------------------------------
  
  #===============================================================================
  # FHI-aims file: ./control.in
  # Created using the Atomic Simulation Environment (ASE)
  # Tue Feb 11 11:38:02 2020
  #===============================================================================
  xc                                 pbe
  spin                               none
  relativistic                       atomic_zora scalar
  charge                             0
  occupation_type                    gaussian 0.01
  mixer                              pulay
  n_max_pulay                        8
  charge_mix_param                   0.02
  sc_accuracy_rho                    0.0001
  sc_accuracy_eev                    0.01
  sc_accuracy_etot                   1e-06
  sc_iter_limit                      10000
  KS_method                          parallel
  empty_states                       6
  basis_threshold                    1e-05
  k_grid                             4 4 1
  vdw_correction_hirshfeld
  use_dipole_correction              .true.
  #===============================================================================
  
  ################################################################################
  #
  #  FHI-aims code project
  #  VB, Fritz-Haber Institut, 2009
  #
  #  Suggested "light" defaults for H atom (to be pasted into control.in file)
  #  Be sure to double-check any results obtained with these settings for post-processing,
  #  e.g., with the "tight" defaults and larger basis sets.
  #
  ################################################################################
    species        H
  #     global species definitions
      nucleus             1
      mass                1.00794
  #
      l_hartree           4
  #
      cut_pot             3.5  1.5  1.0
      basis_dep_cutoff    1e-4
  #
      radial_base         24 5.0
      radial_multiplier   1
      angular_grids       specified
        division   0.2421   50
        division   0.3822  110
        division   0.4799  194
        division   0.5341  302
  #      division   0.5626  434
  #      division   0.5922  590
  #      division   0.6542  770
  #      division   0.6868 1202
  #      outer_grid  770
        outer_grid  302
  ################################################################################
  #
  #  Definition of "minimal" basis
  #
  ################################################################################
  #     valence basis states
      valence      1  s   1.
  #     ion occupancy
      ion_occ      1  s   0.5
  ################################################################################
  #
  #  Suggested additional basis functions. For production calculations,
  #  uncomment them one after another (the most important basis functions are
  #  listed first).
  #
  #  Basis constructed for dimers: 0.5 A, 0.7 A, 1.0 A, 1.5 A, 2.5 A
  #
  ################################################################################
  #  "First tier" - improvements: -1014.90 meV to -62.69 meV
       hydro 2 s 2.1
       hydro 2 p 3.5
  #  "Second tier" - improvements: -12.89 meV to -1.83 meV
  #     hydro 1 s 0.85
  #     hydro 2 p 3.7
  #     hydro 2 s 1.2
  #     hydro 3 d 7
  #  "Third tier" - improvements: -0.25 meV to -0.12 meV
  #     hydro 4 f 11.2
  #     hydro 3 p 4.8
  #     hydro 4 d 9
  #     hydro 3 s 3.2
  ################################################################################
  #
  #  FHI-aims code project
  #  VB, Fritz-Haber Institut, 2009
  #
  #  Suggested "light" defaults for C atom (to be pasted into control.in file)
  #  Be sure to double-check any results obtained with these settings for post-processing,
  #  e.g., with the "tight" defaults and larger basis sets.
  #
  ################################################################################
    species        C
  #     global species definitions
      nucleus             6
      mass                12.0107
  #
      l_hartree           4
  #
      cut_pot             3.5  1.5  1.0
      basis_dep_cutoff    1e-4
  #
      radial_base         34 5.0
      radial_multiplier   1
      angular_grids specified
        division   0.3326   50
        division   0.5710  110
        division   0.7727  194
        division   0.8772  302
  #      division   0.9334  434
  #      division   0.9625  590
  #      division   0.9924  770
  #      division   1.0230  974
  #      division   1.4589 1202
  #     outer_grid  974
       outer_grid 302
  ################################################################################
  #
  #  Definition of "minimal" basis
  #
  ################################################################################
  #     valence basis states
      valence      2  s   2.
      valence      2  p   2.
  #     ion occupancy
      ion_occ      2  s   1.
      ion_occ      2  p   1.
  ################################################################################
  #
  #  Suggested additional basis functions. For production calculations,
  #  uncomment them one after another (the most important basis functions are
  #  listed first).
  #
  #  Constructed for dimers: 1.0 A, 1.25 A, 1.5 A, 2.0 A, 3.0 A
  #
  ################################################################################
  #  "First tier" - improvements: -1214.57 meV to -155.61 meV
       hydro 2 p 1.7
       hydro 3 d 6
       hydro 2 s 4.9
  #  "Second tier" - improvements: -67.75 meV to -5.23 meV
  #     hydro 4 f 9.8
  #     hydro 3 p 5.2
  #     hydro 3 s 4.3
  #     hydro 5 g 14.4
  #     hydro 3 d 6.2
  #  "Third tier" - improvements: -2.43 meV to -0.60 meV
  #     hydro 2 p 5.6
  #     hydro 2 s 1.4
  #     hydro 3 d 4.9
  #     hydro 4 f 11.2
  #  "Fourth tier" - improvements: -0.39 meV to -0.18 meV
  #     hydro 2 p 2.1
  #     hydro 5 g 16.4
  #     hydro 4 d 13.2
  #     hydro 3 s 13.6
  #     hydro 4 f 17.6
  #  Further basis functions - improvements: -0.08 meV and below
  #     hydro 3 s 2
  #     hydro 3 p 6
  #     hydro 4 d 20
  ################################################################################
  #
  #  FHI-aims code project
  #  VB, Fritz-Haber Institut, 2009
  #
  #  Suggested "light" defaults for N atom (to be pasted into control.in file)
  #  Be sure to double-check any results obtained with these settings for post-processing,
  #  e.g., with the "tight" defaults and larger basis sets.
  #
  ################################################################################
    species        N
  #     global species definitions
      nucleus             7
      mass                14.0067
  #
      l_hartree           4
  #
      cut_pot             3.5  1.5  1.0
      basis_dep_cutoff    1e-4
  #
      radial_base         35 5.0
      radial_multiplier   1
      angular_grids       specified
        division   0.2599   50
        division   0.4601  110
        division   0.5885  194
        division   0.6503  302
  #      division   0.6939  434
  #      division   0.7396  590
  #      division   0.7632  770
  #      division   0.8122  974
  #      division   1.1604 1202
  #      outer_grid  974
        outer_grid  302
  ################################################################################
  #
  #  Definition of "minimal" basis
  #
  ################################################################################
  #     valence basis states
      valence      2  s   2.
      valence      2  p   3.
  #     ion occupancy
      ion_occ      2  s   1.
      ion_occ      2  p   2.
  ################################################################################
  #
  #  Suggested additional basis functions. For production calculations,
  #  uncomment them one after another (the most important basis functions are
  #  listed first).
  #
  #  Constructed for dimers: 1.0 A, 1.1 A, 1.5 A, 2.0 A, 3.0 A
  #
  ################################################################################
  #  "First tier" - improvements: -1193.42 meV to -220.60 meV
       hydro 2 p 1.8
       hydro 3 d 6.8
       hydro 3 s 5.8
  #  "Second tier" - improvements: -80.21 meV to -6.86 meV
  #     hydro 4 f 10.8
  #     hydro 3 p 5.8
  #     hydro 1 s 0.8
  #     hydro 5 g 16
  #     hydro 3 d 4.9
  #  "Third tier" - improvements: -4.29 meV to -0.53 meV
  #     hydro 3 s 16
  #     ionic 2 p auto
  #     hydro 3 d 6.6
  #     hydro 4 f 11.6
  #  "Fourth tier" - improvements: -0.75 meV to -0.25 meV
  #     hydro 2 p 4.5
  #     hydro 2 s 2.4
  #     hydro 5 g 14.4
  #     hydro 4 d 14.4
  #     hydro 4 f 16.8
  # Further basis functions - -0.21 meV and below
  #     hydro 3 p 14.8
  #     hydro 3 s 4.4
  #     hydro 3 d 19.6
  #     hydro 5 g 12.8
  ################################################################################
  #
  #  FHI-aims code project
  #  VB, Fritz-Haber Institut, 2009
  #
  #  Suggested "light" defaults for O atom (to be pasted into control.in file)
  #  Be sure to double-check any results obtained with these settings for post-processing,
  #  e.g., with the "tight" defaults and larger basis sets.
  #
  ################################################################################
    species        O
  #     global species definitions
      nucleus             8
      mass                15.9994
  #
      l_hartree           4
  #
      cut_pot             3.5  1.5  1.0
      basis_dep_cutoff    1e-4
  #
      radial_base         36 5.0
      radial_multiplier   1
       angular_grids specified
        division   0.2659   50
        division   0.4451  110
        division   0.6052  194
        division   0.7543  302
  #      division   0.8014  434
  #      division   0.8507  590
  #      division   0.8762  770
  #      division   0.9023  974
  #      division   1.2339 1202
  #      outer_grid 974
        outer_grid 302
  ################################################################################
  #
  #  Definition of "minimal" basis
  #
  ################################################################################
  #     valence basis states
      valence      2  s   2.
      valence      2  p   4.
  #     ion occupancy
      ion_occ      2  s   1.
      ion_occ      2  p   3.
  ################################################################################
  #
  #  Suggested additional basis functions. For production calculations,
  #  uncomment them one after another (the most important basis functions are
  #  listed first).
  #
  #  Constructed for dimers: 1.0 A, 1.208 A, 1.5 A, 2.0 A, 3.0 A
  #
  ################################################################################
  #  "First tier" - improvements: -699.05 meV to -159.38 meV
       hydro 2 p 1.8
       hydro 3 d 7.6
       hydro 3 s 6.4
  #  "Second tier" - improvements: -49.91 meV to -5.39 meV
  #     hydro 4 f 11.6
  #     hydro 3 p 6.2
  #     hydro 3 d 5.6
  #     hydro 5 g 17.6
  #     hydro 1 s 0.75
  #  "Third tier" - improvements: -2.83 meV to -0.50 meV
  #     ionic 2 p auto
  #     hydro 4 f 10.8
  #     hydro 4 d 4.7
  #     hydro 2 s 6.8
  #  "Fourth tier" - improvements: -0.40 meV to -0.12 meV
  #     hydro 3 p 5
  #     hydro 3 s 3.3
  #     hydro 5 g 15.6
  #     hydro 4 f 17.6
  #     hydro 4 d 14
  # Further basis functions - -0.08 meV and below
  #     hydro 3 s 2.1
  #     hydro 4 d 11.6
  #     hydro 3 p 16
  #     hydro 2 s 17.2
  
  -----------------------------------------------------------------------
  Completed first pass over input file control.in .
  -----------------------------------------------------------------------
  
  
  -----------------------------------------------------------------------
  Parsing geometry.in (first pass over file, find array dimensions only).
  The contents of geometry.in will be repeated verbatim below
  unless switched off by setting 'verbatim_writeout .false.' .
  in the first line of geometry.in .
  -----------------------------------------------------------------------
  
  #=======================================================
  # FHI-aims file: ./geometry.in
  # Created using the Atomic Simulation Environment (ASE)
  # Tue Feb 11 11:38:02 2020
  #=======================================================
  lattice_vector 6.5957600000000003 0.0000000000000000 0.0000000000000000
  lattice_vector -1.5450440000000001 7.2328489999999999 0.0000000000000000
  lattice_vector 0.0000000000000000 0.0000000000000000 113.0099040000000059
  atom_frac 0.7022389999999999 0.7714430000000000 0.3756430000000000 H
  atom_frac 0.8527860000000000 0.7481320000000000 0.4245240000000000 H
  atom_frac 0.3500430000000000 0.2473650000000000 0.3804470000000000 H
  atom_frac 0.7536680000000000 0.3937020000000000 0.3587910000000000 H
  atom_frac 0.7996330000000000 0.1252500000000000 0.4076370000000000 H
  atom_frac 0.2988840000000000 0.6252560000000000 0.3972990000000000 H
  atom_frac 0.5320430000000000 0.8299350000000000 0.3647700000000000 H
  atom_frac 0.0220780000000000 0.6893629999999999 0.4136160000000000 H
  atom_frac 0.5204460000000000 0.1889920000000000 0.3912840000000000 H
  atom_frac 0.8566390000000000 0.5554530000000000 0.3701800000000000 H
  atom_frac 0.6981000000000001 0.9643940000000000 0.4191150000000000 H
  atom_frac 0.1956740000000000 0.4633950000000000 0.3859280000000000 H
  atom_frac 0.2063670000000000 0.2733600000000000 0.4291330000000000 H
  atom_frac 0.2593690000000000 0.8961910000000000 0.4460020000000000 H
  atom_frac 0.0370650000000000 0.3321490000000000 0.4400410000000000 H
  atom_frac 0.3610330000000000 0.0570980000000000 0.4345430000000000 H
  atom_frac 0.7090190000000000 0.7739360000000000 0.4731930000000000 H
  atom_frac 0.8595670000000000 0.7506260000000000 0.5220740000000000 H
  atom_frac 0.3568230000000001 0.2498590000000000 0.4779970000000000 H
  atom_frac 0.7604480000000000 0.3961950000000000 0.4563410000000000 H
  atom_frac 0.8064130000000000 0.1277440000000000 0.5051870000000001 H
  atom_frac 0.3056640000000000 0.6277500000000000 0.4948480000000000 H
  atom_frac 0.5388230000000001 0.8324279999999999 0.4623200000000000 H
  atom_frac 0.0288580000000000 0.6918570000000001 0.5111660000000000 H
  atom_frac 0.5272260000000000 0.1914860000000000 0.4888339999999999 H
  atom_frac 0.8634190000000002 0.5579470000000000 0.4677300000000000 H
  atom_frac 0.7048810000000000 0.9668869999999999 0.5166650000000000 H
  atom_frac 0.2024540000000000 0.4658890000000000 0.4834780000000000 H
  atom_frac 0.2131470000000000 0.2758540000000000 0.5266830000000000 H
  atom_frac 0.2661490000000000 0.8986850000000000 0.5435520000000000 H
  atom_frac 0.0438450000000000 0.3346419999999999 0.5375910000000000 H
  atom_frac 0.3678130000000000 0.0595920000000000 0.5320920000000000 H
  atom_frac 0.7158010000000001 0.7764300000000000 0.5707600000000000 H
  atom_frac 0.8663480000000000 0.7531200000000000 0.6196420000000000 H
  atom_frac 0.3636040000000000 0.2523530000000000 0.5755650000000000 H
  atom_frac 0.7672289999999999 0.3986900000000000 0.5539090000000000 H
  atom_frac 0.8131939999999999 0.1302380000000000 0.6027550000000000 H
  atom_frac 0.3124460000000000 0.6302440000000000 0.5924160000000002 H
  atom_frac 0.5456050000000000 0.8349220000000001 0.5598880000000001 H
  atom_frac 0.0356400000000000 0.6943510000000001 0.6087340000000000 H
  atom_frac 0.5340080000000000 0.1939800000000000 0.5864010000000000 H
  atom_frac 0.8702010000000000 0.5604410000000000 0.5652970000000000 H
  atom_frac 0.7116620000000000 0.9693820000000000 0.6142320000000000 H
  atom_frac 0.2092350000000000 0.4683830000000000 0.5810450000000000 H
  atom_frac 0.2199280000000000 0.2783480000000000 0.6242500000000000 H
  atom_frac 0.2729310000000000 0.9011790000000000 0.6411200000000000 H
  atom_frac 0.0506270000000000 0.3371370000000000 0.6351580000000000 H
  atom_frac 0.3745940000000000 0.0620860000000000 0.6296600000000000 H
  atom_frac 0.5509510000000000 0.7262130000000000 0.3713540000000000 C
  atom_frac 0.0037260000000000 0.7933220000000000 0.4202000000000000 C
  atom_frac 0.5014080000000000 0.2926240000000000 0.3847000000000000 C
  atom_frac 0.7207060000000000 0.4534080000000000 0.3672620000000000 C
  atom_frac 0.8337010000000000 0.0661570000000000 0.4161080000000000 C
  atom_frac 0.3316750000000001 0.5654600000000000 0.3888290000000000 C
  atom_frac 0.0554070000000000 0.2281800000000000 0.4334570000000000 C
  atom_frac 0.2253910000000000 0.9553350000000000 0.4375320000000000 C
  atom_frac 0.5577309999999999 0.7287069999999999 0.4689040000000000 C
  atom_frac 0.0105060000000000 0.7958150000000001 0.5177500000000000 C
  atom_frac 0.5081890000000000 0.2951180000000000 0.4822500000000000 C
  atom_frac 0.7274870000000000 0.4559020000000000 0.4648110000000000 C
  atom_frac 0.8404820000000000 0.0686510000000000 0.5136570000000000 C
  atom_frac 0.3384560000000000 0.5679530000000000 0.4863780000000000 C
  atom_frac 0.0621870000000000 0.2306740000000000 0.5310070000000000 C
  atom_frac 0.2321710000000000 0.9578280000000000 0.5350819999999999 C
  atom_frac 0.5645120000000000 0.7312010000000001 0.5664720000000000 C
  atom_frac 0.0172870000000000 0.7983090000000000 0.6153180000000000 C
  atom_frac 0.5149700000000000 0.2976120000000000 0.5798170000000000 C
  atom_frac 0.7342680000000000 0.4583960000000000 0.5623790000000000 C
  atom_frac 0.8472630000000000 0.0711450000000000 0.6112250000000000 C
  atom_frac 0.3452370000000000 0.5704470000000000 0.5839460000000000 C
  atom_frac 0.0689690000000000 0.2331680000000000 0.6285740000000000 C
  atom_frac 0.2389520000000000 0.9603220000000000 0.6326490000000001 C
  atom_frac 0.5517919999999999 0.5474640000000000 0.3659090000000000 N
  atom_frac 0.0022650000000000 0.9717810000000000 0.4147200000000000 N
  atom_frac 0.5006380000000000 0.4714240000000000 0.3901630000000000 N
  atom_frac 0.3843390000000000 0.7166630000000000 0.3799670000000000 N
  atom_frac 0.6679210000000000 0.3021040000000000 0.3761050000000000 N
  atom_frac 0.8879120000000000 0.2181420000000000 0.4248980000000000 N
  atom_frac 0.3940510000000000 0.4732210000000000 0.3579730000000000 N
  atom_frac 0.1594910000000000 0.0459580000000000 0.4067480000000000 N
  atom_frac 0.6583700000000000 0.5456370000000000 0.3981000000000000 N
  atom_frac 0.2267700000000000 0.8074270000000000 0.3773870000000000 N
  atom_frac 0.3281990000000000 0.7120240000000000 0.4261440000000000 N
  atom_frac 0.8255100000000000 0.2113600000000000 0.3786860000000000 N
  atom_frac 0.0568280000000000 0.0497110000000000 0.4389380000000000 N
  atom_frac 0.1712500000000000 0.8034000000000000 0.4287420000000000 N
  atom_frac 0.8995710000000000 0.9755239999999999 0.4468920000000000 N
  atom_frac 0.7309430000000000 0.3095080000000000 0.4274959999999999 N
  atom_frac 0.5585730000000000 0.5499570000000000 0.4634590000000000 N
  atom_frac 0.0090450000000000 0.9742749999999999 0.5122690000000000 N
  atom_frac 0.5074180000000000 0.4739170000000000 0.4877130000000000 N
  atom_frac 0.3911200000000000 0.7191570000000000 0.4775170000000000 N
  atom_frac 0.6747010000000000 0.3045980000000000 0.4736550000000000 N
  atom_frac 0.8946930000000000 0.2206350000000000 0.5224480000000000 N
  atom_frac 0.4008310000000000 0.4757150000000000 0.4555230000000000 N
  atom_frac 0.1662710000000000 0.0484510000000000 0.5042970000000000 N
  atom_frac 0.6651500000000000 0.5481300000000000 0.4956490000000000 N
  atom_frac 0.2335500000000000 0.8099210000000000 0.4749360000000000 N
  atom_frac 0.3349790000000000 0.7145170000000000 0.5236930000000000 N
  atom_frac 0.8322909999999999 0.2138540000000000 0.4762350000000000 N
  atom_frac 0.0636080000000000 0.0522040000000000 0.5364880000000000 N
  atom_frac 0.1780300000000000 0.8058940000000000 0.5262910000000000 N
  atom_frac 0.9063510000000000 0.9780180000000001 0.5444420000000000 N
  atom_frac 0.7377230000000000 0.3120020000000000 0.5250460000000000 N
  atom_frac 0.5653540000000000 0.5524520000000001 0.5610260000000000 N
  atom_frac 0.0158270000000000 0.9767690000000001 0.6098370000000000 N
  atom_frac 0.5142000000000000 0.4764120000000000 0.5852800000000000 N
  atom_frac 0.3979009999999999 0.7216510000000000 0.5750840000000000 N
  atom_frac 0.6814829999999999 0.3070920000000000 0.5712230000000000 N
  atom_frac 0.9014740000000000 0.2231290000000000 0.6200150000000000 N
  atom_frac 0.4076120000000000 0.4782090000000000 0.5530900000000000 N
  atom_frac 0.1730520000000000 0.0509450000000000 0.6018650000000000 N
  atom_frac 0.6719309999999999 0.5506240000000000 0.5932170000000000 N
  atom_frac 0.2403320000000000 0.8124150000000000 0.5725040000000000 N
  atom_frac 0.3417610000000000 0.7170110000000000 0.6212610000000000 N
  atom_frac 0.8390720000000000 0.2163480000000000 0.5738030000000001 N
  atom_frac 0.0703900000000000 0.0546980000000000 0.6340550000000000 N
  atom_frac 0.1848110000000000 0.8083880000000000 0.6238590000000001 N
  atom_frac 0.9131330000000000 0.9805120000000001 0.6420090000000001 N
  atom_frac 0.7445050000000000 0.3144960000000000 0.6226130000000000 N
  atom_frac 0.2624250000000000 0.5663610000000000 0.3560150000000000 O
  atom_frac 0.2913050000000000 0.9530080000000000 0.4047900000000000 O
  atom_frac 0.7899850000000000 0.4524860000000000 0.4000390000000000 O
  atom_frac 0.3972810000000001 0.3194280000000000 0.3539510000000000 O
  atom_frac 0.1556400000000000 0.1995140000000000 0.4027080000000000 O
  atom_frac 0.6551709999999999 0.6994300000000000 0.4021390000000000 O
  atom_frac 0.2624230000000000 0.9362940000000000 0.3702330000000000 O
  atom_frac 0.2914860000000000 0.5826020000000000 0.4190440000000000 O
  atom_frac 0.7898060000000000 0.0824430000000000 0.3858210000000000 O
  atom_frac 0.0621050000000000 0.7541490000000000 0.3829210000000000 O
  atom_frac 0.9902069999999999 0.2646690000000000 0.3731690000000000 O
  atom_frac 0.5656930000000000 0.2561780000000000 0.4220330000000000 O
  atom_frac 0.7677570000000000 0.0684840000000000 0.4488500000000000 O
  atom_frac 0.9033620000000000 0.8219470000000000 0.4509320000000000 O
  atom_frac 0.7676780000000000 0.4389400000000000 0.4346140000000000 O
  atom_frac 0.4934390000000000 0.7653329999999999 0.4316070000000000 O
  atom_frac 0.2692050000000000 0.5688540000000000 0.4535650000000000 O
  atom_frac 0.2980850000000000 0.9555010000000000 0.5023400000000000 O
  atom_frac 0.7967649999999999 0.4549800000000000 0.4975890000000000 O
  atom_frac 0.4040610000000000 0.3219220000000000 0.4515010000000000 O
  atom_frac 0.1624200000000000 0.2020080000000000 0.5002580000000000 O
  atom_frac 0.6619510000000000 0.7019240000000000 0.4996890000000000 O
  atom_frac 0.2692030000000000 0.9387880000000000 0.4677830000000000 O
  atom_frac 0.2982660000000000 0.5850959999999999 0.5165930000000000 O
  atom_frac 0.7965869999999999 0.0849360000000000 0.4833710000000000 O
  atom_frac 0.0688850000000000 0.7566420000000000 0.4804700000000000 O
  atom_frac 0.9969870000000001 0.2671630000000000 0.4707190000000000 O
  atom_frac 0.5724730000000000 0.2586720000000000 0.5195830000000000 O
  atom_frac 0.7745370000000000 0.0709780000000000 0.5463990000000000 O
  atom_frac 0.9101420000000001 0.8244410000000000 0.5484810000000000 O
  atom_frac 0.7744579999999999 0.4414340000000000 0.5321640000000000 O
  atom_frac 0.5002190000000000 0.7678270000000001 0.5291560000000000 O
  atom_frac 0.2759860000000000 0.5713490000000000 0.5511330000000000 O
  atom_frac 0.3048660000000000 0.9579950000000000 0.5999070000000001 O
  atom_frac 0.8035460000000000 0.4574740000000000 0.5951560000000000 O
  atom_frac 0.4108430000000000 0.3244160000000000 0.5490680000000000 O
  atom_frac 0.1692020000000000 0.2045020000000000 0.5978260000000000 O
  atom_frac 0.6687320000000001 0.7044180000000000 0.5972560000000000 O
  atom_frac 0.2759850000000000 0.9412820000000000 0.5653500000000000 O
  atom_frac 0.3050470000000000 0.5875899999999999 0.6141610000000000 O
  atom_frac 0.8033680000000000 0.0874310000000000 0.5809380000000000 O
  atom_frac 0.0756660000000000 0.7591360000000000 0.5780380000000001 O
  atom_frac 0.0037690000000000 0.2696570000000000 0.5682870000000000 O
  atom_frac 0.5792550000000000 0.2611660000000000 0.6171500000000000 O
  atom_frac 0.7813190000000000 0.0734720000000000 0.6439670000000000 O
  atom_frac 0.9169230000000000 0.8269350000000000 0.6460490000000000 O
  atom_frac 0.7812390000000000 0.4439280000000000 0.6297310000000000 O
  atom_frac 0.5070000000000000 0.7703210000000000 0.6267239999999999 O
  
  -----------------------------------------------------------------------
  Completed first pass over input file geometry.in .
  -----------------------------------------------------------------------
  

  Basic array size parameters:
  | Number of species                 :        4
  | Number of atoms                   :      168
  | Number of lattice vectors         :        3
  | Max. basis fn. angular momentum   :        2
  | Max. atomic/ionic basis occupied n:        2
  | Max. number of basis fn. types    :        2
  | Max. radial fns per species/type  :        3
  | Max. logarithmic grid size        :     1301
  | Max. radial integration grid size :       36
  | Max. angular integration grid size:      302
  | Max. angular grid division number :        8
  | Radial grid for Hartree potential :     1301
  | Number of spin channels           :        1

------------------------------------------------------------
          Reading file control.in.
------------------------------------------------------------
  XC: Using PBE gradient-corrected functionals.
  Spin treatment: No spin polarisation.
  Scalar relativistic treatment of kinetic energy: on-site free-atom approximation to ZORA.
  Charge =   0.000000E+00: Neutral system requested explicitly.
  Occupation type: Gaussian broadening, width =   0.100000E-01 eV.
  Using pulay charge density mixing.
  Pulay mixing - number of memorized iterations:    8
  Charge density mixing - mixing parameter:     0.0200
  Convergence accuracy of self-consistent charge density:  0.1000E-03
  Convergence accuracy of sum of eigenvalues:  0.1000E-01
  Convergence accuracy of total energy:  0.1000E-05
  Maximum number of s.-c. iterations  : 10000
  Kohn-Sham electronic structure solved by the ELSI library.
  Number of empty states per atom:        6
  Threshold for basis singularities:  0.1000E-04
  Found k-point grid:         4         4         1
  Using dipole correction.
 
  Reading configuration options for species H                   .
  | Found nuclear charge :   1.0000
  | Found atomic mass :    1.00794000000000      amu
  | Found l_max for Hartree potential  :   4
  | Found cutoff potl. onset [A], width [A], scale factor :    3.50000    1.50000    1.00000
  | Threshold for basis-dependent cutoff potential is   0.100000E-03
  | Found data for basic radial integration grid :    24 points, outermost radius =    5.000 A
  | Found multiplier for basic radial grid :   1
  | Found angular grid specification: user-specified.
  | Specified grid contains     5 separate shells.
  | Check grid settings after all constraints further below.
  | Found free-atom valence shell :  1 s   1.000
  | No ionic wave fns used. Skipping ion_occ.
  | Found hydrogenic basis function :  2 s   2.100
  | Found hydrogenic basis function :  2 p   3.500
  Species H                   : Missing cutoff potential type.
  Defaulting to exp(1/x)/(1-x)^2 type cutoff potential.
  Species H : No 'logarithmic' tag. Using default grid for free atom:
  | Default logarithmic grid data [bohr] : 0.1000E-03 0.1000E+03 0.1012E+01
  Species H : On-site basis accuracy parameter (for Gram-Schmidt orthonormalisation) not specified.
  Using default value basis_acc =  0.1000000E-03.
  Species H                   : Using default innermost maximum threshold i_radial=  2 for radial functions.
  Species H                   : Default cutoff onset for free atom density etc. : 0.35000000E+01 AA.
  Species H                   : Basic radial grid will be enhanced according to radial_multiplier =   1, to contain    24 grid points.
 
  Reading configuration options for species C                   .
  | Found nuclear charge :   6.0000
  | Found atomic mass :    12.0107000000000      amu
  | Found l_max for Hartree potential  :   4
  | Found cutoff potl. onset [A], width [A], scale factor :    3.50000    1.50000    1.00000
  | Threshold for basis-dependent cutoff potential is   0.100000E-03
  | Found data for basic radial integration grid :    34 points, outermost radius =    5.000 A
  | Found multiplier for basic radial grid :   1
  | Found angular grid specification: user-specified.
  | Specified grid contains     5 separate shells.
  | Check grid settings after all constraints further below.
  | Found free-atom valence shell :  2 s   2.000
  | Found free-atom valence shell :  2 p   2.000
  | No ionic wave fns used. Skipping ion_occ.
  | No ionic wave fns used. Skipping ion_occ.
  | Found hydrogenic basis function :  2 p   1.700
  | Found hydrogenic basis function :  3 d   6.000
  | Found hydrogenic basis function :  2 s   4.900
  Species C                   : Missing cutoff potential type.
  Defaulting to exp(1/x)/(1-x)^2 type cutoff potential.
  Species C : No 'logarithmic' tag. Using default grid for free atom:
  | Default logarithmic grid data [bohr] : 0.1000E-03 0.1000E+03 0.1012E+01
  Species C : On-site basis accuracy parameter (for Gram-Schmidt orthonormalisation) not specified.
  Using default value basis_acc =  0.1000000E-03.
  Species C                   : Using default innermost maximum threshold i_radial=  2 for radial functions.
  Species C                   : Default cutoff onset for free atom density etc. : 0.35000000E+01 AA.
  Species C                   : Basic radial grid will be enhanced according to radial_multiplier =   1, to contain    34 grid points.
 
  Reading configuration options for species N                   .
  | Found nuclear charge :   7.0000
  | Found atomic mass :    14.0067000000000      amu
  | Found l_max for Hartree potential  :   4
  | Found cutoff potl. onset [A], width [A], scale factor :    3.50000    1.50000    1.00000
  | Threshold for basis-dependent cutoff potential is   0.100000E-03
  | Found data for basic radial integration grid :    35 points, outermost radius =    5.000 A
  | Found multiplier for basic radial grid :   1
  | Found angular grid specification: user-specified.
  | Specified grid contains     5 separate shells.
  | Check grid settings after all constraints further below.
  | Found free-atom valence shell :  2 s   2.000
  | Found free-atom valence shell :  2 p   3.000
  | No ionic wave fns used. Skipping ion_occ.
  | No ionic wave fns used. Skipping ion_occ.
  | Found hydrogenic basis function :  2 p   1.800
  | Found hydrogenic basis function :  3 d   6.800
  | Found hydrogenic basis function :  3 s   5.800
  Species N                   : Missing cutoff potential type.
  Defaulting to exp(1/x)/(1-x)^2 type cutoff potential.
  Species N : No 'logarithmic' tag. Using default grid for free atom:
  | Default logarithmic grid data [bohr] : 0.1000E-03 0.1000E+03 0.1012E+01
  Species N : On-site basis accuracy parameter (for Gram-Schmidt orthonormalisation) not specified.
  Using default value basis_acc =  0.1000000E-03.
  Species N                   : Using default innermost maximum threshold i_radial=  2 for radial functions.
  Species N                   : Default cutoff onset for free atom density etc. : 0.35000000E+01 AA.
  Species N                   : Basic radial grid will be enhanced according to radial_multiplier =   1, to contain    35 grid points.
 
  Reading configuration options for species O                   .
  | Found nuclear charge :   8.0000
  | Found atomic mass :    15.9994000000000      amu
  | Found l_max for Hartree potential  :   4
  | Found cutoff potl. onset [A], width [A], scale factor :    3.50000    1.50000    1.00000
  | Threshold for basis-dependent cutoff potential is   0.100000E-03
  | Found data for basic radial integration grid :    36 points, outermost radius =    5.000 A
  | Found multiplier for basic radial grid :   1
  | Found angular grid specification: user-specified.
  | Specified grid contains     5 separate shells.
  | Check grid settings after all constraints further below.
  | Found free-atom valence shell :  2 s   2.000
  | Found free-atom valence shell :  2 p   4.000
  | No ionic wave fns used. Skipping ion_occ.
  | No ionic wave fns used. Skipping ion_occ.
  | Found hydrogenic basis function :  2 p   1.800
  | Found hydrogenic basis function :  3 d   7.600
  | Found hydrogenic basis function :  3 s   6.400
  Species O                   : Missing cutoff potential type.
  Defaulting to exp(1/x)/(1-x)^2 type cutoff potential.
  Species O : No 'logarithmic' tag. Using default grid for free atom:
  | Default logarithmic grid data [bohr] : 0.1000E-03 0.1000E+03 0.1012E+01
  Species O : On-site basis accuracy parameter (for Gram-Schmidt orthonormalisation) not specified.
  Using default value basis_acc =  0.1000000E-03.
  Species O                   : Using default innermost maximum threshold i_radial=  2 for radial functions.
  Species O                   : Default cutoff onset for free atom density etc. : 0.35000000E+01 AA.
  Species O                   : Basic radial grid will be enhanced according to radial_multiplier =   1, to contain    36 grid points.
 
  Finished reading input file 'control.in'. Consistency checks are next.
 
  MPI_IN_PLACE appears to work with this MPI implementation.
  | Keeping use_mpi_in_place .true. (see manual).
  Target number of points in a grid batch is not set. Defaulting to  100
  Method for grid partitioning is not set. Defaulting to parallel hash+maxmin partitioning.
  Batch size limit is not set. Defaulting to    200
  By default, will store active basis functions for each batch.
  If in need of memory, prune_basis_once .false. can be used to disable this option.
  communication_type for Hartree potential was not specified.
  Defaulting to calc_hartree .
  Pulay mixer: Number of initial linear mixing iterations not set.
  Defaulting to    0 iterations.
  Work space size for distributed Hartree potential not set.
  Defaulting to   0.200000E+03 MB.
  Algorithm-dependent basis array size parameters:
  | n_max_pulay                         :        8
  Presetting      1001 iterations before the initial mixing cycle
  is restarted anyway using the sc_init_iter criterion / keyword.
  Presetting a factor      1.000 between actual scf density residual
  and density convergence criterion sc_accuracy_rho below which sc_init_iter
  takes no effect.
  Calculation of forces was not defined in control.in. No forces will be calculated.
  Geometry relaxation not requested: no relaxation will be performed.
  No accuracy limit for integral partition fn. given. Defaulting to  0.1000E-14.
  No threshold value for u(r) in integrations given. Defaulting to  0.1000E-05.
  No accuracy for occupation numbers given. Defaulting to  0.1000E-12.
  No threshold value for occupation numbers given. Defaulting to  0.0000E+00.
  No accuracy for fermi level given. Defaulting to  0.1000E-19.
  Maximum # of iterations to find E_F not set. Defaulting to  200.
  Maximum number of tasks per SMP nodenot specified.
  Presetting   512 tasks.
  Will not use alltoall communication since running on < 1024 CPUs.
  partition_type (choice of integration weights) for integrals was not specified.
  | Using a version of the partition function of Stratmann and coworkers ('stratmann_smoother').
  | At each grid point, the set of atoms used to build the partition table is smoothly restricted to
  | only those atoms whose free-atom density would be non-zero at that grid point.
  Partitioning for Hartree potential was not defined. Using partition_type for integrals.
  | Adjusted default value of keyword multip_moments_threshold to:       0.10000000E-11
  | This value may affect high angular momentum components of the Hartree potential in periodic systems.
  Angular momentum expansion for Kerker preconditioner not set explicitly.
  | Using default value of   0
  No explicit requirement for turning off preconditioner.
  | By default, it will be turned off when the charge convergence reaches
  | sc_accuracy_rho  =   0.100000E-03
  | sc_accuracy_eev  =   0.100000E-01
  | sc_accuracy_etot =   0.100000E-05
  No special mixing parameter while Kerker preconditioner is on.
  Using default: charge_mix_param =     0.0200.
  No q(lm)/r^(l+1) cutoff set for long-range Hartree potential.
  | Using default value of  0.100000E-09 .
  | Verify using the multipole_threshold keyword.
  Defaulting to new monopole extrapolation.
  Density update method: automatic selection selected.
  Using density matrix based charge density update.
  Using density matrix based charge density update.
  Using packed matrix style: index .
  Defaulting to use time-reversal symmetry for k-point grid.
  Using the following vdw_convergence_threshold for supercell sums
  over the Tkatchenko-Scheffler correction:  0.168000E-05 eV.
------------------------------------------------------------


------------------------------------------------------------
          Reading geometry description geometry.in.
------------------------------------------------------------
  Input structure read successfully.
  The structure contains      168 atoms,  and a total of        912.000 electrons.

  Input geometry:
  | Unit cell:
  |        6.59576000        0.00000000        0.00000000
  |       -1.54504400        7.23284900        0.00000000
  |        0.00000000        0.00000000      113.00990400
  | Atomic structure:
  |       Atom                x [A]            y [A]            z [A]
  |    1: Species H             3.43988653        5.57973073       42.45137937
  |    2: Species H             4.46887493        5.41112579       47.97541649
  |    3: Species H             1.92660981        1.78915369       42.99427895
  |    4: Species H             4.36272633        2.84758712       40.54693647
  |    5: Species H             5.08067060        0.90591434       46.06701824
  |    6: Species H             1.00531910        4.52238223       44.89872185
  |    7: Species H             2.22694185        6.00279453       41.22262268
  |    8: Species H            -0.91947498        4.98605849       46.74270445
  |    9: Species H             3.14073595        1.36695060       44.21896728
  |   10: Species H             4.79198593        4.01750768       41.83400626
  |   11: Species H             3.11446889        6.97531618       47.36414591
  |   12: Species H             0.57465308        3.35166606       43.61368623
  |   13: Species H             0.93879398        1.97717160       48.49627913
  |   14: Species H             0.32608115        6.48201418       50.40264320
  |   15: Species H            -0.26871298        2.40238356       49.72899117
  |   16: Species H             2.29306810        0.41298121       49.10766271
  |   17: Species H             3.48075399        5.59776222       53.47549550
  |   18: Species H             4.50974744        5.42916451       58.99953262
  |   19: Species H             1.96747572        1.80719242       54.01839508
  |   20: Species H             4.40359379        2.86561861       51.57105260
  |   21: Species H             5.12153651        0.92395306       57.09113437
  |   22: Species H             1.04618501        4.54042096       55.92272497
  |   23: Species H             2.26780930        6.02082603       52.24673882
  |   24: Species H            -0.87860906        5.00409721       57.76682059
  |   25: Species H             3.18160187        1.38498932       55.24308341
  |   26: Species H             4.83285184        4.03554640       52.85812240
  |   27: Species H             3.15534295        6.99334767       58.38826205
  |   28: Species H             0.61551899        3.36970479       54.63780237
  |   29: Species H             0.97965989        1.99521033       59.52039527
  |   30: Species H             0.36694706        6.50005290       61.42675934
  |   31: Species H            -0.22784552        2.42041506       60.75310730
  |   32: Species H             2.33393401        0.43101994       60.13166584
  |   33: Species H             3.52163309        5.61580095       64.50153281
  |   34: Species H             4.55061995        5.44720324       70.02568293
  |   35: Species H             2.00834823        1.82523114       65.04454540
  |   36: Species H             4.44446476        2.88366457       62.59720291
  |   37: Species H             5.16240902        0.94199179       68.11728469
  |   38: Species H             1.08706412        4.55845969       66.94887529
  |   39: Species H             2.30868841        6.03886475       63.27288913
  |   40: Species H            -0.83772996        5.02213594       68.79297090
  |   41: Species H             3.22248097        1.40302805       66.26912072
  |   42: Species H             4.87373094        4.05358513       63.88415970
  |   43: Species H             3.19621391        7.01139363       69.41429935
  |   44: Species H             0.65639150        3.38774351       65.66383967
  |   45: Species H             1.02053240        2.01324905       70.54643257
  |   46: Species H             0.40782617        6.51809163       72.45290965
  |   47: Species H            -0.18696796        2.43846101       71.77914460
  |   48: Species H             2.37480652        0.44905866       71.15781615
  |   49: Species C             2.51190953        5.25258897       41.96667989
  |   50: Species C            -1.20114159        5.73797823       47.48676166
  |   51: Species C             2.85504987        2.11650521       43.47491007
  |   52: Species C             4.05306850        3.27943160       41.50424336
  |   53: Species C             5.39667623        0.47850359       47.02432513
  |   54: Species C             1.31398812        4.08988680       43.94152796
  |   55: Species C             0.01290313        1.65039148       48.98493396
  |   56: Species C             0.01059033        6.90979380       49.44544932
  |   57: Species C             2.55277544        5.27062770       52.99079603
  |   58: Species C            -1.16027414        5.75600973       58.51087780
  |   59: Species C             2.89592238        2.13454393       54.49902620
  |   60: Species C             4.09394101        3.29747032       52.52824649
  |   61: Species C             5.43754874        0.49654232       58.04832826
  |   62: Species C             1.35486217        4.10791829       54.96553109
  |   63: Species C             0.05376905        1.66843021       60.00905009
  |   64: Species C             0.05145779        6.92782529       60.46956545
  |   65: Species C             2.59364795        5.28866642       64.01694634
  |   66: Species C            -1.11940163        5.77404845       69.53702811
  |   67: Species C             2.93679489        2.15258266       65.52506351
  |   68: Species C             4.13481351        3.31550905       63.55439680
  |   69: Species C             5.47842125        0.51458104       69.07447857
  |   70: Species C             1.39573468        4.12595701       65.99168140
  |   71: Species C             0.09464815        1.68646894       71.03508740
  |   72: Species C             0.09233030        6.94586402       71.49560276
  |   73: Species N             2.79363163        3.95972444       41.35134096
  |   74: Species N            -1.48650501        7.02874523       46.86746739
  |   75: Species N             2.57371727        3.40973861       44.09228317
  |   76: Species N             1.42773193        5.18351526       42.94003419
  |   77: Species N             3.93868264        2.18507261       42.50358994
  |   78: Species N             5.51941546        1.57778815       48.01768219
  |   79: Species N             1.86791856        3.42273604       40.45449436
  |   80: Species N             0.98095723        0.33240727       45.96655243
  |   81: Species N             3.49941734        3.94651003       44.98924278
  |   82: Species N             0.24821025        5.83999757       42.64846864
  |   83: Species N             1.06461343        5.14996208       48.15849253
  |   84: Species N             5.11830534        1.52873496       42.79526851
  |   85: Species N             0.29801817        0.35955216       49.60434124
  |   86: Species N            -0.11176445        5.81087089       48.45209226
  |   87: Species N             4.42612692        7.05581779       50.50322202
  |   88: Species N             4.34292112        2.23862463       48.31128192
  |   89: Species N             2.83450569        3.97775594       52.37545710
  |   90: Species N            -1.44563909        7.04678396       57.89147051
  |   91: Species N             2.61458473        3.42777010       55.11639931
  |   92: Species N             1.46860444        5.20155399       53.96415033
  |   93: Species N             3.97954856        2.20311134       53.52770608
  |   94: Species N             5.56028952        1.59581964       59.04179832
  |   95: Species N             1.90878447        3.44077476       51.47861050
  |   96: Species N             1.02182468        0.35043877       56.99055556
  |   97: Species N             3.54028480        3.96454152       56.01324591
  |   98: Species N             0.28907617        5.85803629       53.67247177
  |   99: Species N             1.10548089        5.16799357       59.18249566
  |  100: Species N             5.15917785        1.54677369       53.81927163
  |  101: Species N             0.33888563        0.37758365       60.62845738
  |  102: Species N            -0.07089854        5.82890961       59.47609539
  |  103: Species N             4.46699283        7.07385651       61.52733815
  |  104: Species N             4.38378704        2.25666335       59.33539806
  |  105: Species N             2.87537665        3.99580190       63.40149440
  |  106: Species N            -1.40475999        7.06482268       68.91762083
  |  107: Species N             2.65546229        3.44581606       66.14243661
  |  108: Species N             1.50947695        5.21959271       64.99018763
  |  109: Species N             4.02042766        2.22115007       64.55385639
  |  110: Species N             5.60116203        1.61385836       70.06783563
  |  111: Species N             1.94965698        3.45881349       62.50464780
  |  112: Species N             1.06269719        0.36847749       68.01670587
  |  113: Species N             3.58115731        3.98258025       67.03939622
  |  114: Species N             0.32995527        5.87607502       64.69862208
  |  115: Species N             1.14635999        5.18603229       70.20864597
  |  116: Species N             5.20005036        1.56481242       64.84542194
  |  117: Species N             0.37976473        0.39562237       71.65449468
  |  118: Species N            -0.03002603        5.84694834       70.50224570
  |  119: Species N             4.50787193        7.09189524       72.55337546
  |  120: Species N             4.42466614        2.27470208       70.36143536
  |  121: Species O             0.85583965        4.09640359       40.23322097
  |  122: Species O             0.44893857        6.89296296       45.74527904
  |  123: Species O             4.51144068        3.27276291       45.20836899
  |  124: Species O             2.12683981        2.31037449       39.99996853
  |  125: Species O             0.71830618        1.44305464       45.50999242
  |  126: Species O             3.24070055        5.05887158       45.44568978
  |  127: Species O             0.28426370        6.77207312       41.83999579
  |  128: Species O             1.02242597        4.21387229       47.35612221
  |  129: Species O             5.08199276        0.59629777       43.60159417
  |  130: Species O            -0.75556371        5.45464584       43.27386545
  |  131: Species O             6.12224247        1.91431091       42.17179287
  |  132: Species O             3.33536898        1.85289679       47.69390881
  |  133: Species O             4.95813012        0.49533443       50.72449541
  |  134: Species O             4.68841466        5.94501854       50.95978203
  |  135: Species O             4.38523823        3.17478674       49.11568642
  |  136: Species O             2.07213206        5.53553802       48.77586564
  |  137: Species O             0.89670711        4.11443509       51.25733711
  |  138: Species O             0.48980603        6.91099445       56.76939518
  |  139: Species O             4.55230660        3.29080164       56.23248512
  |  140: Species O             2.16770573        2.32841322       51.02408467
  |  141: Species O             0.75917209        1.46109336       56.53410856
  |  142: Species O             3.28156646        5.07691030       56.46980592
  |  143: Species O             0.32512961        6.79011185       52.86411192
  |  144: Species O             1.06329189        4.23191102       58.38012534
  |  145: Species O             5.12286681        0.61432926       54.62571031
  |  146: Species O            -0.71469625        5.47267733       54.29786857
  |  147: Species O             6.16310838        1.93234964       53.19590900
  |  148: Species O             3.37623489        1.87093552       58.71802495
  |  149: Species O             4.99899603        0.51337316       61.74849854
  |  150: Species O             4.72928058        5.96305726       61.98378516
  |  151: Species O             4.42610414        3.19282547       60.13980255
  |  152: Species O             2.11299797        5.55357675       59.79986876
  |  153: Species O             0.93757808        4.13248104       62.28348742
  |  154: Species O             0.53067854        6.92903318       67.79543248
  |  155: Species O             4.59317911        3.30884036       67.25852243
  |  156: Species O             2.20858483        2.34645194       62.05012197
  |  157: Species O             0.80005120        1.47913209       67.56025887
  |  158: Species O             3.32243897        5.09494903       67.49584322
  |  159: Species O             0.36600872        6.80815057       63.89014923
  |  160: Species O             1.10416440        4.24994974       69.40627565
  |  161: Species O             5.16373778        0.63237522       65.65174761
  |  162: Species O            -0.67382375        5.49071606       65.32401889
  |  163: Species O            -0.39177251        1.95038836       64.22205931
  |  164: Species O             3.41711400        1.88897424       69.74406225
  |  165: Species O             5.03987513        0.53141188       72.77464885
  |  166: Species O             4.77015309        5.98109599       73.00993547
  |  167: Species O             4.46697665        3.21086419       71.16583986
  |  168: Species O             2.15387048        5.57161547       70.82601907

  Lattice parameters for 3D lattice (in Angstroms) :     6.595760    7.396030  113.009904
  Angle(s) between unit vectors (in degrees)       :    90.000000   90.000000  102.058002

  |

  | The smallest distance between any two atoms is         1.09410512 AA.
  |
  | The first atom of this pair is atom number                     25 .
  | The second atom of this pair is atom number                    59 .
  | Wigner-Seitz cell of the first atom image           0     0     0 .
  | (The Wigner-Seitz cell of the second atom is 0 0 0  by definition.)

  Quantities derived from the lattice vectors:
  | Reciprocal lattice vector 1:  0.952610  0.203492  0.000000
  | Reciprocal lattice vector 2: -0.000000  0.868701  0.000000
  | Reciprocal lattice vector 3:  0.000000  0.000000  0.055599
  | Unit cell volume                               :   0.539127E+04  A^3

  Range separation radius for Ewald summation (hartree_convergence_parameter):      4.60869733 bohr.

  Fractional coordinates:
                         L1                L2                L3
       atom_frac         0.70223900        0.77144300        0.37564300  H
       atom_frac         0.85278600        0.74813200        0.42452400  H
       atom_frac         0.35004300        0.24736500        0.38044700  H
       atom_frac         0.75366800        0.39370200        0.35879100  H
       atom_frac         0.79963300        0.12525000        0.40763700  H
       atom_frac         0.29888400        0.62525600        0.39729900  H
       atom_frac         0.53204300        0.82993500        0.36477000  H
       atom_frac         0.02207800        0.68936300        0.41361600  H
       atom_frac         0.52044600        0.18899200        0.39128400  H
       atom_frac         0.85663900        0.55545300        0.37018000  H
       atom_frac         0.69810000        0.96439400        0.41911500  H
       atom_frac         0.19567400        0.46339500        0.38592800  H
       atom_frac         0.20636700        0.27336000        0.42913300  H
       atom_frac         0.25936900        0.89619100        0.44600200  H
       atom_frac         0.03706500        0.33214900        0.44004100  H
       atom_frac         0.36103300        0.05709800        0.43454300  H
       atom_frac         0.70901900        0.77393600        0.47319300  H
       atom_frac         0.85956700        0.75062600        0.52207400  H
       atom_frac         0.35682300        0.24985900        0.47799700  H
       atom_frac         0.76044800        0.39619500        0.45634100  H
       atom_frac         0.80641300        0.12774400        0.50518700  H
       atom_frac         0.30566400        0.62775000        0.49484800  H
       atom_frac         0.53882300        0.83242800        0.46232000  H
       atom_frac         0.02885800        0.69185700        0.51116600  H
       atom_frac         0.52722600        0.19148600        0.48883400  H
       atom_frac         0.86341900        0.55794700        0.46773000  H
       atom_frac         0.70488100        0.96688700        0.51666500  H
       atom_frac         0.20245400        0.46588900        0.48347800  H
       atom_frac         0.21314700        0.27585400        0.52668300  H
       atom_frac         0.26614900        0.89868500        0.54355200  H
       atom_frac         0.04384500        0.33464200        0.53759100  H
       atom_frac         0.36781300        0.05959200        0.53209200  H
       atom_frac         0.71580100        0.77643000        0.57076000  H
       atom_frac         0.86634800        0.75312000        0.61964200  H
       atom_frac         0.36360400        0.25235300        0.57556500  H
       atom_frac         0.76722900        0.39869000        0.55390900  H
       atom_frac         0.81319400        0.13023800        0.60275500  H
       atom_frac         0.31244600        0.63024400        0.59241600  H
       atom_frac         0.54560500        0.83492200        0.55988800  H
       atom_frac         0.03564000        0.69435100        0.60873400  H
       atom_frac         0.53400800        0.19398000        0.58640100  H
       atom_frac         0.87020100        0.56044100        0.56529700  H
       atom_frac         0.71166200        0.96938200        0.61423200  H
       atom_frac         0.20923500        0.46838300        0.58104500  H
       atom_frac         0.21992800        0.27834800        0.62425000  H
       atom_frac         0.27293100        0.90117900        0.64112000  H
       atom_frac         0.05062700        0.33713700        0.63515800  H
       atom_frac         0.37459400        0.06208600        0.62966000  H
       atom_frac         0.55095100        0.72621300        0.37135400  C
       atom_frac         0.00372600        0.79332200        0.42020000  C
       atom_frac         0.50140800        0.29262400        0.38470000  C
       atom_frac         0.72070600        0.45340800        0.36726200  C
       atom_frac         0.83370100        0.06615700        0.41610800  C
       atom_frac         0.33167500        0.56546000        0.38882900  C
       atom_frac         0.05540700        0.22818000        0.43345700  C
       atom_frac         0.22539100        0.95533500        0.43753200  C
       atom_frac         0.55773100        0.72870700        0.46890400  C
       atom_frac         0.01050600        0.79581500        0.51775000  C
       atom_frac         0.50818900        0.29511800        0.48225000  C
       atom_frac         0.72748700        0.45590200        0.46481100  C
       atom_frac         0.84048200        0.06865100        0.51365700  C
       atom_frac         0.33845600        0.56795300        0.48637800  C
       atom_frac         0.06218700        0.23067400        0.53100700  C
       atom_frac         0.23217100        0.95782800        0.53508200  C
       atom_frac         0.56451200        0.73120100        0.56647200  C
       atom_frac         0.01728700        0.79830900        0.61531800  C
       atom_frac         0.51497000        0.29761200        0.57981700  C
       atom_frac         0.73426800        0.45839600        0.56237900  C
       atom_frac         0.84726300        0.07114500        0.61122500  C
       atom_frac         0.34523700        0.57044700        0.58394600  C
       atom_frac         0.06896900        0.23316800        0.62857400  C
       atom_frac         0.23895200        0.96032200        0.63264900  C
       atom_frac         0.55179200        0.54746400        0.36590900  N
       atom_frac         0.00226500        0.97178100        0.41472000  N
       atom_frac         0.50063800        0.47142400        0.39016300  N
       atom_frac         0.38433900        0.71666300        0.37996700  N
       atom_frac         0.66792100        0.30210400        0.37610500  N
       atom_frac         0.88791200        0.21814200        0.42489800  N
       atom_frac         0.39405100        0.47322100        0.35797300  N
       atom_frac         0.15949100        0.04595800        0.40674800  N
       atom_frac         0.65837000        0.54563700        0.39810000  N
       atom_frac         0.22677000        0.80742700        0.37738700  N
       atom_frac         0.32819900        0.71202400        0.42614400  N
       atom_frac         0.82551000        0.21136000        0.37868600  N
       atom_frac         0.05682800        0.04971100        0.43893800  N
       atom_frac         0.17125000        0.80340000        0.42874200  N
       atom_frac         0.89957100        0.97552400        0.44689200  N
       atom_frac         0.73094300        0.30950800        0.42749600  N
       atom_frac         0.55857300        0.54995700        0.46345900  N
       atom_frac         0.00904500        0.97427500        0.51226900  N
       atom_frac         0.50741800        0.47391700        0.48771300  N
       atom_frac         0.39112000        0.71915700        0.47751700  N
       atom_frac         0.67470100        0.30459800        0.47365500  N
       atom_frac         0.89469300        0.22063500        0.52244800  N
       atom_frac         0.40083100        0.47571500        0.45552300  N
       atom_frac         0.16627100        0.04845100        0.50429700  N
       atom_frac         0.66515000        0.54813000        0.49564900  N
       atom_frac         0.23355000        0.80992100        0.47493600  N
       atom_frac         0.33497900        0.71451700        0.52369300  N
       atom_frac         0.83229100        0.21385400        0.47623500  N
       atom_frac         0.06360800        0.05220400        0.53648800  N
       atom_frac         0.17803000        0.80589400        0.52629100  N
       atom_frac         0.90635100        0.97801800        0.54444200  N
       atom_frac         0.73772300        0.31200200        0.52504600  N
       atom_frac         0.56535400        0.55245200        0.56102600  N
       atom_frac         0.01582700        0.97676900        0.60983700  N
       atom_frac         0.51420000        0.47641200        0.58528000  N
       atom_frac         0.39790100        0.72165100        0.57508400  N
       atom_frac         0.68148300        0.30709200        0.57122300  N
       atom_frac         0.90147400        0.22312900        0.62001500  N
       atom_frac         0.40761200        0.47820900        0.55309000  N
       atom_frac         0.17305200        0.05094500        0.60186500  N
       atom_frac         0.67193100        0.55062400        0.59321700  N
       atom_frac         0.24033200        0.81241500        0.57250400  N
       atom_frac         0.34176100        0.71701100        0.62126100  N
       atom_frac         0.83907200        0.21634800        0.57380300  N
       atom_frac         0.07039000        0.05469800        0.63405500  N
       atom_frac         0.18481100        0.80838800        0.62385900  N
       atom_frac         0.91313300        0.98051200        0.64200900  N
       atom_frac         0.74450500        0.31449600        0.62261300  N
       atom_frac         0.26242500        0.56636100        0.35601500  O
       atom_frac         0.29130500        0.95300800        0.40479000  O
       atom_frac         0.78998500        0.45248600        0.40003900  O
       atom_frac         0.39728100        0.31942800        0.35395100  O
       atom_frac         0.15564000        0.19951400        0.40270800  O
       atom_frac         0.65517100        0.69943000        0.40213900  O
       atom_frac         0.26242300        0.93629400        0.37023300  O
       atom_frac         0.29148600        0.58260200        0.41904400  O
       atom_frac         0.78980600        0.08244300        0.38582100  O
       atom_frac         0.06210500        0.75414900        0.38292100  O
       atom_frac         0.99020700        0.26466900        0.37316900  O
       atom_frac         0.56569300        0.25617800        0.42203300  O
       atom_frac         0.76775700        0.06848400        0.44885000  O
       atom_frac         0.90336200        0.82194700        0.45093200  O
       atom_frac         0.76767800        0.43894000        0.43461400  O
       atom_frac         0.49343900        0.76533300        0.43160700  O
       atom_frac         0.26920500        0.56885400        0.45356500  O
       atom_frac         0.29808500        0.95550100        0.50234000  O
       atom_frac         0.79676500        0.45498000        0.49758900  O
       atom_frac         0.40406100        0.32192200        0.45150100  O
       atom_frac         0.16242000        0.20200800        0.50025800  O
       atom_frac         0.66195100        0.70192400        0.49968900  O
       atom_frac         0.26920300        0.93878800        0.46778300  O
       atom_frac         0.29826600        0.58509600        0.51659300  O
       atom_frac         0.79658700        0.08493600        0.48337100  O
       atom_frac         0.06888500        0.75664200        0.48047000  O
       atom_frac         0.99698700        0.26716300        0.47071900  O
       atom_frac         0.57247300        0.25867200        0.51958300  O
       atom_frac         0.77453700        0.07097800        0.54639900  O
       atom_frac         0.91014200        0.82444100        0.54848100  O
       atom_frac         0.77445800        0.44143400        0.53216400  O
       atom_frac         0.50021900        0.76782700        0.52915600  O
       atom_frac         0.27598600        0.57134900        0.55113300  O
       atom_frac         0.30486600        0.95799500        0.59990700  O
       atom_frac         0.80354600        0.45747400        0.59515600  O
       atom_frac         0.41084300        0.32441600        0.54906800  O
       atom_frac         0.16920200        0.20450200        0.59782600  O
       atom_frac         0.66873200        0.70441800        0.59725600  O
       atom_frac         0.27598500        0.94128200        0.56535000  O
       atom_frac         0.30504700        0.58759000        0.61416100  O
       atom_frac         0.80336800        0.08743100        0.58093800  O
       atom_frac         0.07566600        0.75913600        0.57803800  O
       atom_frac         0.00376900        0.26965700        0.56828700  O
       atom_frac         0.57925500        0.26116600        0.61715000  O
       atom_frac         0.78131900        0.07347200        0.64396700  O
       atom_frac         0.91692300        0.82693500        0.64604900  O
       atom_frac         0.78123900        0.44392800        0.62973100  O
       atom_frac         0.50700000        0.77032100        0.62672400  O

  Structure-dependent array size parameters: 
  | Maximum number of distinct radial functions  :       21
  | Maximum number of basis functions            :     1920
  | Number of Kohn-Sham states (occupied + empty):      960
------------------------------------------------------------
 Error: The dipole correction needs vacuum z-level to be defined
 Vacuum level will be determined automatically.
 Determine position of vacuum level automatically
 **WARNING** : This feature is experimental and still requires some testing
 **PLEASE ** : If you see it fail, please report.
 Vacuum level determined:
 set_vacuum_level    113.009904000000

------------------------------------------------------------
          Preparing all fixed parts of the calculation.
------------------------------------------------------------
  Determining machine precision:
    2.225073858507201E-308
  Setting up grids for atomic and cluster calculations.

  Creating wave function, potential, and density for free atoms.

  Species: H

  List of occupied orbitals and eigenvalues:
    n    l              occ      energy [Ha]    energy [eV]
    1    0           1.0000        -0.237593        -6.4652


  Species: C

  List of occupied orbitals and eigenvalues:
    n    l              occ      energy [Ha]    energy [eV]
    1    0           2.0000       -10.046810      -273.3876
    2    0           2.0000        -0.503128       -13.6908
    2    1           2.0000        -0.191849        -5.2205


  Species: N

  List of occupied orbitals and eigenvalues:
    n    l              occ      energy [Ha]    energy [eV]
    1    0           2.0000       -14.143973      -384.8771
    2    0           2.0000        -0.682008       -18.5584
    2    1           3.0000        -0.259605        -7.0642


  Species: O

  List of occupied orbitals and eigenvalues:
    n    l              occ      energy [Ha]    energy [eV]
    1    0           2.0000       -18.926989      -515.0296
    2    0           2.0000        -0.880247       -23.9527
    2    1           4.0000        -0.331514        -9.0210

  Creating fixed part of basis set: Ionic, confined, hydrogenic.
 
  H                    hydrogenic:
 
  List of hydrogenic basis orbitals: 
    n    l      effective z      eigenvalue [eV]  inner max. [A]     outer max. [A]     outer radius [A]   
    2    0         2.100000       -14.9728           0.193243           1.317208           4.583499
    2    1         3.500000       -41.6669           0.602369           0.602369           3.723403
 
 
  C                    hydrogenic:
 
  List of hydrogenic basis orbitals: 
    n    l      effective z      eigenvalue [eV]  inner max. [A]     outer max. [A]     outer radius [A]   
    2    1         1.700000        -9.7616           1.230570           1.230570           4.607917
    3    2         6.000000       -54.4224           0.792453           0.792453           3.883070
    2    0         4.900000       -81.6679           0.082559           0.562749           3.078220
 
 
  N                    hydrogenic:
 
  List of hydrogenic basis orbitals: 
    n    l      effective z      eigenvalue [eV]  inner max. [A]     outer max. [A]     outer radius [A]   
    2    1         1.800000       -10.9749           1.177451           1.177451           4.573712
    3    2         6.800000       -69.9026           0.704619           0.704619           3.538137
    3    0         5.800000       -50.8545           0.067388           1.191934           4.250239
 
 
  O                    hydrogenic:
 
  List of hydrogenic basis orbitals: 
    n    l      effective z      eigenvalue [eV]  inner max. [A]     outer max. [A]     outer radius [A]   
    2    1         1.800000       -10.9749           1.164242           1.164242           4.578029
    3    2         7.600000       -87.3180           0.624125           0.624125           3.251020
    3    0         6.400000       -61.9207           0.061167           1.081902           4.001998
 

  Adding cutoff potential to free-atom effective potential.
  Creating atomic-like basis functions for current effective potential.

  Species H                   :

  List of atomic basis orbitals and eigenvalues:
    n    l      energy [Ha]    energy [eV]    outer radius [A]
    1    0        -0.237593        -6.4652       4.527807


  Species C                   :

  List of atomic basis orbitals and eigenvalues:
    n    l      energy [Ha]    energy [eV]    outer radius [A]
    1    0       -10.046810      -273.3876       1.934409
    2    0        -0.503128       -13.6908       4.496620
    2    1        -0.191849        -5.2205       4.551928


  Species N                   :

  List of atomic basis orbitals and eigenvalues:
    n    l      energy [Ha]    energy [eV]    outer radius [A]
    1    0       -14.143973      -384.8771       1.637919
    2    0        -0.682008       -18.5584       4.463241
    2    1        -0.259605        -7.0642       4.518138


  Species O                   :

  List of atomic basis orbitals and eigenvalues:
    n    l      energy [Ha]    energy [eV]    outer radius [A]
    1    0       -18.926989      -515.0296       1.415765
    2    0        -0.880247       -23.9527       4.413171
    2    1        -0.331514        -9.0210       4.522403

  Assembling full basis from fixed parts.
  | Species H :   atomic orbital   1 s accepted.
  | Species H :    hydro orbital   2 s accepted.
  | Species H :    hydro orbital   2 p accepted.
  | Species C :   atomic orbital   1 s accepted.
  | Species C :    hydro orbital   2 s accepted.
  | Species C :   atomic orbital   2 s accepted.
  | Species C :   atomic orbital   2 p accepted.
  | Species C :    hydro orbital   2 p accepted.
  | Species C :    hydro orbital   3 d accepted.
  | Species N :   atomic orbital   1 s accepted.
  | Species N :    hydro orbital   3 s accepted.
  | Species N :   atomic orbital   2 s accepted.
  | Species N :   atomic orbital   2 p accepted.
  | Species N :    hydro orbital   2 p accepted.
  | Species N :    hydro orbital   3 d accepted.
  | Species O :   atomic orbital   1 s accepted.
  | Species O :    hydro orbital   3 s accepted.
  | Species O :   atomic orbital   2 s accepted.
  | Species O :   atomic orbital   2 p accepted.
  | Species O :    hydro orbital   2 p accepted.
  | Species O :    hydro orbital   3 d accepted.
 
  Basis size parameters after reduction:
  | Total number of radial functions:       21
  | Total number of basis functions :     1920
 
  Per-task memory consumption for arrays in subroutine allocate_ext:
  |           7.049336MB.
  Testing on-site integration grid accuracy.
  |  Species  Function  <phi|h_atom|phi> (log., in eV)  <phi|h_atom|phi> (rad., in eV)
           1        1                 -6.4664147733                 -6.4652229287
           1        2                 13.7099062243                 13.7158503352
           1        3                 25.2661739479                 25.2663166526
           2        4               -273.3876219315               -273.3875919975
           2        5                -10.7204647108                -10.7200987593
           2        6                 17.5782951179                 17.5752355749
           2        7                 -5.2222267968                 -5.2237454457
           2        8                  8.6866956299                  8.6634852752
           2        9                 27.4984676176                 27.4985577282
           3       10               -384.8770852102               -384.8770238661
           3       11                 12.5754985571                 12.5755902269
           3       12                -15.7673946340                -15.7673131149
           3       13                 -7.0647024644                 -7.0651952861
           3       14                  8.8117910311                  8.7928686445
           3       15                 35.9641313273                 35.9643080892
           4       16               -515.0295626295               -515.0294562738
           4       17                 15.1698434419                 15.1699322204
           4       18                -21.6038822678                -21.6039118105
           4       19                 -9.0211123393                 -9.0212703513
           4       20                  8.3047696391                  8.2854840999
           4       21                 45.8428042125                 45.8427461222

  Preparing densities etc. for the partition functions (integrals / Hartree potential).

  Preparations completed.
  max(cpu_time)          :      0.281 s.
  Wall clock time (cpu1) :      0.273 s.
------------------------------------------------------------

------------------------------------------------------------
          Begin self-consistency loop: Initialization.

          Date     :  20200214, Time     :  115514.695
------------------------------------------------------------

  Initializing index lists of integration centers etc. from given atomic structure:
  Mapping all atomic coordinates to central unit cell.

  Initializing the k-points
          Using symmetry for reducing the k-points
  | k-points reduced from:       16 to       10
  | Number of k-points                             :        10
  The eigenvectors in the calculations are COMPLEX.
  | Number of basis functions in the Hamiltonian integrals :     10646
  | Number of basis functions in a single unit cell        :      1920
  | Number of centers in hartree potential         :      6872
  | Number of centers in hartree multipole         :      3132
  | Number of centers in electron density summation:      2463
  | Number of centers in basis integrals           :      2582
  | Number of centers in integrals                 :      1200
  | Number of centers in hamiltonian               :      2481
  | Consuming          8 KiB for k_phase.
  | Number of super-cells (origin) [n_cells]                     :         189
  | Number of super-cells (after PM_index) [n_cells]             :          54
  | Number of super-cells in hamiltonian [n_cells_in_hamiltonian]:          54
  | Size of matrix packed + index [n_hamiltonian_matrix_size] :     2561285
  Checking for possible mapping of k-points to SMP-nodes
  Running on 1 SMP-nodes
  Mapping of k-points to SMP-nodes is *NOT* possible:
  | 10 k-points  : 1 SMP-nodes
 * The calculation will run, but some performance degradation might result.
 * Check the number of actual k-points above, and consider using a number
 * compute nodes that can be divided cleanly by the number of k points
 * (e.g., two k-points per node, two nodes per k-point, etc.).
  Using simple linear distribution as default method for k-point parallelism.
  * Using 56 tasks for Scalapack Eigenvalue solver.
  Detailed listing of tasks and assigned k-points:
   Task     0 k-point     1 on d020
   Task     1 k-point     1 on d020
   Task     2 k-point     1 on d020
   Task     3 k-point     1 on d020
   Task     4 k-point     1 on d020
   Task     5 k-point     1 on d020
   Task     6 k-point     2 on d020
   Task     7 k-point     2 on d020
   Task     8 k-point     2 on d020
   Task     9 k-point     2 on d020
   Task    10 k-point     2 on d020
   Task    11 k-point     2 on d020
[...]
  |   Hirshfeld second moments:      0.04995917      -0.01552543      -0.00252990
  |                                 -0.01552543       0.02900652      -0.01751776
  |                                 -0.00252990      -0.01751776       0.02775445
  ----------------------------------------------------------------------
  | Atom   156: O
  |   Hirshfeld charge        :     -0.14085617
  |   Free atom volume        :     23.60491416
  |   Hirshfeld volume        :     21.65358762
  |   Hirshfeld dipole vector :     -0.00694228       0.03317643       0.01139638
  |   Hirshfeld dipole moment :      0.03575959
  |   Hirshfeld second moments:      0.01763951      -0.00013469      -0.01404520
  |                                 -0.00013469       0.06050917       0.01241104
  |                                 -0.01404520       0.01241104       0.04192220
  ----------------------------------------------------------------------
  | Atom   157: O
  |   Hirshfeld charge        :     -0.13997879
  |   Free atom volume        :     23.60491416
  |   Hirshfeld volume        :     21.63875715
  |   Hirshfeld dipole vector :      0.00732488      -0.03285391       0.01085974
  |   Hirshfeld dipole moment :      0.03536902
  |   Hirshfeld second moments:      0.01831527      -0.00019867       0.01413794
  |                                 -0.00019867       0.06091326      -0.01233749
  |                                  0.01413794      -0.01233749       0.04246497
  ----------------------------------------------------------------------
  | Atom   158: O
  |   Hirshfeld charge        :     -0.14116404
  |   Free atom volume        :     23.60491416
  |   Hirshfeld volume        :     21.65607817
  |   Hirshfeld dipole vector :      0.00696989      -0.03319339      -0.01138124
  |   Hirshfeld dipole moment :      0.03577587
  |   Hirshfeld second moments:      0.01741425      -0.00014240      -0.01399347
  |                                 -0.00014240       0.06043468       0.01253049
  |                                 -0.01399347       0.01253049       0.04181773
  ----------------------------------------------------------------------
  | Atom   159: O
  |   Hirshfeld charge        :     -0.15417271
  |   Free atom volume        :     23.60491416
  |   Hirshfeld volume        :     21.86298567
  |   Hirshfeld dipole vector :      0.02023732      -0.03379579       0.02439854
  |   Hirshfeld dipole moment :      0.04633566
  |   Hirshfeld second moments:     -0.00902173       0.00828780       0.00339347
  |                                  0.00828780       0.04895971      -0.00370547
  |                                  0.00339347      -0.00370547       0.05797772
  ----------------------------------------------------------------------
  | Atom   160: O
  |   Hirshfeld charge        :     -0.15432109
  |   Free atom volume        :     23.60491416
  |   Hirshfeld volume        :     21.83225866
  |   Hirshfeld dipole vector :     -0.01950678       0.03408247       0.02423221
  |   Hirshfeld dipole moment :      0.04614466
  |   Hirshfeld second moments:     -0.00886821       0.00820457      -0.00310568
  |                                  0.00820457       0.04938691       0.00350253
  |                                 -0.00310568       0.00350253       0.05930361
  ----------------------------------------------------------------------
  | Atom   161: O
  |   Hirshfeld charge        :     -0.15387195
  |   Free atom volume        :     23.60491416
  |   Hirshfeld volume        :     21.85774552
  |   Hirshfeld dipole vector :     -0.02016429       0.03383383      -0.02447063
  |   Hirshfeld dipole moment :      0.04636959
  |   Hirshfeld second moments:     -0.00874416       0.00825010       0.00338780
  |                                  0.00825010       0.04917679      -0.00349545
  |                                  0.00338780      -0.00349545       0.05813066
  ----------------------------------------------------------------------
  | Atom   162: O
  |   Hirshfeld charge        :     -0.16736266
  |   Free atom volume        :     23.60491416
  |   Hirshfeld volume        :     21.91794051
  |   Hirshfeld dipole vector :      0.04037192      -0.00482659      -0.03000311
  |   Hirshfeld dipole moment :      0.05053092
  |   Hirshfeld second moments:      0.04424313       0.02772381      -0.00885701
  |                                  0.02772381       0.01154343       0.01343658
  |                                 -0.00885701       0.01343658       0.03252689
  ----------------------------------------------------------------------
  | Atom   163: O
  |   Hirshfeld charge        :     -0.16711468
  |   Free atom volume        :     23.60491416
  |   Hirshfeld volume        :     21.91312615
  |   Hirshfeld dipole vector :     -0.04038229       0.00470068       0.02996480
  |   Hirshfeld dipole moment :      0.05050461
  |   Hirshfeld second moments:      0.04444593       0.02766468      -0.00873811
  |                                  0.02766468       0.01170616       0.01351811
  |                                 -0.00873811       0.01351811       0.03271049
  ----------------------------------------------------------------------
  | Atom   164: O
  |   Hirshfeld charge        :     -0.17043226
  |   Free atom volume        :     23.60491416
  |   Hirshfeld volume        :     21.90128782
  |   Hirshfeld dipole vector :      0.04116281      -0.00465198       0.03030211
  |   Hirshfeld dipole moment :      0.05132480
  |   Hirshfeld second moments:      0.04433075       0.02740903       0.00820274
  |                                  0.02740903       0.01062850      -0.01320647
  |                                  0.00820274      -0.01320647       0.03286919
  ----------------------------------------------------------------------
  | Atom   165: O
  |   Hirshfeld charge        :     -0.17888269
  |   Free atom volume        :     23.60491416
  |   Hirshfeld volume        :     22.30639655
  |   Hirshfeld dipole vector :      0.04743511      -0.01916347      -0.02797885
  |   Hirshfeld dipole moment :      0.05831075
  |   Hirshfeld second moments:      0.04351556      -0.01863473       0.01406431
  |                                 -0.01863473       0.00323671       0.02285347
  |                                  0.01406431       0.02285347       0.00168328
  ----------------------------------------------------------------------
  | Atom   166: O
  |   Hirshfeld charge        :     -0.16441694
  |   Free atom volume        :     23.60491416
  |   Hirshfeld volume        :     22.31258539
  |   Hirshfeld dipole vector :      0.00948174       0.04862826      -0.03594288
  |   Hirshfeld dipole moment :      0.06120867
  |   Hirshfeld second moments:     -0.00265289      -0.00373798       0.03035855
  |                                 -0.00373798       0.04377632      -0.00147025
  |                                  0.03035855      -0.00147025       0.01359543
  ----------------------------------------------------------------------
  | Atom   167: O
  |   Hirshfeld charge        :     -0.16029628
  |   Free atom volume        :     23.60491416
  |   Hirshfeld volume        :     22.12470719
  |   Hirshfeld dipole vector :      0.02316533      -0.03266302      -0.03947903
  |   Hirshfeld dipole moment :      0.05623255
  |   Hirshfeld second moments:     -0.01275266       0.01094685       0.00038870
  |                                  0.01094685       0.04700831       0.00172374
  |                                  0.00038870       0.00172374       0.03815805
  ----------------------------------------------------------------------
  | Atom   168: O
  |   Hirshfeld charge        :     -0.16133001
  |   Free atom volume        :     23.60491416
  |   Hirshfeld volume        :     21.87396080
  |   Hirshfeld dipole vector :     -0.04001902       0.00598460      -0.03107891
  |   Hirshfeld dipole moment :      0.05102192
  |   Hirshfeld second moments:      0.04805343       0.03028635       0.00434727
  |                                  0.03028635       0.01297445      -0.01367203
  |                                  0.00434727      -0.01367203       0.03190181
  ----------------------------------------------------------------------

  Converging periodic supercell size for vdw calculation.
  Convergence accuracy (and time!) can be adjusted using the vdw_convergence_threshold keyword.
  | Shell number:     1
  |   VDW energy change:  -0.544679E+01 eV.
  |   Not converged.
  | Shell number:     2
  |   VDW energy change:  -0.112262E+00 eV.
  |   Not converged.
  | Shell number:     3
  |   VDW energy change:  -0.145338E-01 eV.
  |   Not converged.
  | Shell number:     4
  |   VDW energy change:  -0.370580E-02 eV.
  |   Not converged.
  | Shell number:     5
  |   VDW energy change:  -0.129449E-02 eV.
  |   Not converged.
  | Shell number:     6
  |   VDW energy change:  -0.547201E-03 eV.
  |   Not converged.
  | Shell number:     7
  |   VDW energy change:  -0.263905E-03 eV.
  |   Not converged.
  | Shell number:     8
  |   VDW energy change:  -0.140461E-03 eV.
  |   Not converged.
  | Shell number:     9
  |   VDW energy change:  -0.807822E-04 eV.
  |   Not converged.
  | Shell number:    10
  |   VDW energy change:  -0.494776E-04 eV.
  |   Not converged.
  | Shell number:    11
  |   VDW energy change:  -0.319270E-04 eV.
  |   Not converged.
  | Shell number:    12
  |   VDW energy change:  -0.215240E-04 eV.
  |   Not converged.
  | Shell number:    13
  |   VDW energy change:  -0.150579E-04 eV.
  |   Not converged.
  | Shell number:    14
  |   VDW energy change:  -0.108709E-04 eV.
  |   Not converged.
  | Shell number:    15
  |   VDW energy change:  -0.806163E-05 eV.
  |   Not converged.
  | Shell number:    16
  |   VDW energy change:  -0.611730E-05 eV.
  |   Not converged.
  | Shell number:    17
  |   VDW energy change:  -0.473461E-05 eV.
  |   Not converged.
  | Shell number:    18
  |   VDW energy change:  -0.372764E-05 eV.
  |   Not converged.
  | Shell number:    19
  |   VDW energy change:  -0.297884E-05 eV.
  |   Not converged.
  | Shell number:    20
  |   VDW energy change:  -0.241168E-05 eV.
  |   Not converged.
  | Shell number:    21
  |   VDW energy change:  -0.197506E-05 eV.
  |   Not converged.
  | Shell number:    22
  |   VDW energy change:  -0.163408E-05 eV.
  |   Converged.

  Total energy components:
  | Sum of eigenvalues            :       -4055.70257842 Ha     -110361.28227915 eV
  | XC energy correction          :        -884.46659417 Ha      -24067.56057124 eV
  | XC potential correction       :        1137.29432992 Ha       30947.35330115 eV
  | Free-atom electrostatic energy:       -3322.48409946 Ha      -90409.39232554 eV
  | Hartree energy correction     :         -57.10549172 Ha       -1553.91949225 eV
  | vdW energy correction         :          -0.35652729 Ha          -9.70160108 eV
  | Entropy correction            :           0.00000000 Ha           0.00000000 eV
  | ---------------------------
  | Total energy                  :       -7182.82096114 Ha     -195454.50296811 eV
  | Total energy, T -> 0          :       -7182.82096114 Ha     -195454.50296811 eV  <-- do not rely on this value for anything but (periodic) metals
  | Electronic free energy        :       -7182.82096114 Ha     -195454.50296811 eV

  Derived energy quantities:
  | Kinetic energy                :        7170.87736062 Ha      195129.50106209 eV
  | Electrostatic energy          :      -13468.87520030 Ha     -366506.74185788 eV
  | Energy correction for multipole
  | error in Hartree potential    :           1.25821542 Ha          34.23778354 eV
  | Sum of eigenvalues per atom                           :        -656.91239452 eV
  | Total energy (T->0) per atom                          :       -1163.41966052 eV  <-- do not rely on this value for anything but (periodic) metals
  | Electronic free energy per atom                       :       -1163.41966052 eV
  Timings for VdW correction (Tkatchenko-Scheffler 2009 or later):
  | CPU time:        9.275 s, Wall clock time:        9.274 s.

  Energy and forces in a compact form:
  | Total energy uncorrected      :         -0.195454502968111E+06 eV
  | Total energy corrected        :         -0.195454502968111E+06 eV  <-- do not rely on this value for anything but (periodic) metals
  | Electronic free energy        :         -0.195454502968111E+06 eV

  ------------------------------------ 
  Start decomposition of the XC Energy 
  ------------------------------------ 
  X and C from original XC functional choice 
  Hartree-Fock Energy :          0.000000000 Ha              0.000000000 eV
  X Energy            :       -852.856801478 Ha         -23207.414348450 eV
  C Energy            :        -31.609792688 Ha           -860.146222793 eV
  Total XC Energy     :       -884.466594166 Ha         -24067.560571243 eV
  ------------------------------------ 
  LDA X and C from self-consistent density 
  X Energy LDA        :       -775.821749014 Ha         -21111.183915874 eV
  C Energy LDA        :        -61.865172314 Ha          -1683.436991005 eV
  ------------------------------------ 
  End decomposition of the XC Energy 
  ------------------------------------ 

------------------------------------------------------------

------------------------------------------------------------------------------
  Final output of selected total energy values:

  The following output summarizes some interesting total energy values
  at the end of a run (AFTER all relaxation, molecular dynamics, etc.).

  | Total energy of the DFT / Hartree-Fock s.c.f. calculation      :        -195454.502968111 eV
  | Final zero-broadening corrected energy (caution - metals only) :        -195454.502968111 eV
  | For reference only, the value of 1 Hartree used in FHI-aims is :             27.211384500 eV

  Before relying on these values, please be sure to understand exactly which
  total energy value is referred to by a given number. Different objects may
  all carry the same name 'total energy'. Definitions:

  Total energy of the DFT / Hartree-Fock s.c.f. calculation:
  | Note that this energy does not include ANY quantities calculated after the
  | s.c.f. cycle, in particular not ANY RPA, MP2, etc. many-body perturbation terms.

  Final zero-broadening corrected energy:
  | For metallic systems only, a broadening of the occupation numbers at the Fermi
  | level can be extrapolated back to zero broadening by an electron-gas inspired
  | formula. For all systems that are not real metals, this value can be
  | meaningless and should be avoided.

------------------------------------------------------------------------------
  Methods described in the following list of references were used in this FHI-aims run.
  If you publish the results, please make sure to cite these reference if they apply.
  FHI-aims is an academic code, and for our developers (often, Ph.D. students
  and postdocs), scientific credit in the community is essential.
  Thank you for helping us!

  For any use of FHI-aims, please cite:

    Volker Blum, Ralf Gehrke, Felix Hanke, Paula Havu, Ville Havu,
    Xinguo Ren, Karsten Reuter, and Matthias Scheffler
    'Ab initio molecular simulations with numeric atom-centered orbitals'
    Computer Physics Communications 180, 2175-2196 (2009)
    http://dx.doi.org/10.1016/j.cpc.2009.06.022


  The scalable eigensolver library ELPA was used in your run.
  ELPA is essential especially for large systems on hundreds or thousands of CPUs.
  For ELPA, please cite:

    Andreas Marek, Volker Blum, Rainer Johanni, Ville Havu, Bruno Lang,
    Thomas Auckenthaler, Alexander Heinecke, Hans-Joachim Bungartz, and Hermann Lederer,
    'The ELPA Library - Scalable Parallel Eigenvalue Solutions
    for Electronic Structure Theory and Computational Science'
    The Journal of Physics: Condensed Matter 26, 213201 (2014).
    http://dx.doi.org/10.1088/0953-8984/26/21/213201


  The ELSI infrastructure was used in your run to solve the Kohn-Sham electronic structure.
  Please check out http://elsi-interchange.org to learn more.
  If scalability is important for your project, please acknowledge ELSI by citing:

    V. W-z. Yu, F. Corsetti, A. Garcia, W. P. Huhn, M. Jacquelin, W. Jia,
    B. Lange, L. Lin, J. Lu, W. Mi, A. Seifitokaldani, A. Vazquez-Mayagoitia,
    C. Yang, H. Yang, and V. Blum
    'ELSI: A unified software interface for Kohn-Sham electronic structure solvers'
    Computer Physics Communications 222, 267-285 (2018).
    http://dx.doi.org/10.1016/j.cpc.2017.09.007


  For the real-space grid partitioning and parallelization used in this calculation, please cite:

    Ville Havu, Volker Blum, Paula Havu, and Matthias Scheffler,
    'Efficient O(N) integration for all-electron electronic structure calculation'
    'using numerically tabulated basis functions'
    Journal of Computational Physics 228, 8367-8379 (2009).
    http://dx.doi.org/10.1016/j.jcp.2009.08.008

  Of course, there are many other important community references, e.g., those cited in the
  above references. Our list is limited to references that describe implementations in the
  FHI-aims code. The reason is purely practical (length of this list) - please credit others as well.

------------------------------------------------------------
          Leaving FHI-aims.
          Date     :  20200214, Time     :  120645.231

          Computational steps:
          | Number of self-consistency cycles          :           27
          | Number of SCF (re)initializations          :            1

          Detailed time accounting                     :  max(cpu_time)    wall_clock(cpu1)
          | Total time                                 :      690.930 s         691.039 s
          | Preparation time                           :        0.281 s           0.273 s
          | Boundary condition initalization           :        4.596 s           4.595 s
          | Grid partitioning                          :        2.112 s           2.112 s
          | Preloading free-atom quantities on grid    :        0.009 s           0.008 s
          | Free-atom superposition energy             :        0.674 s           0.674 s
          | Total time for integrations                :       63.932 s          63.928 s
          | Total time for solution of K.-S. equations :      114.818 s         114.810 s
          | Total time for density update              :       97.849 s          97.773 s
          | Total time for mixing & preconditioning    :      204.916 s         204.906 s
          | Total time for Hartree multipole update    :        0.306 s           0.318 s
          | Total time for Hartree multipole sum       :      188.484 s         188.476 s
          | Total time for total energy evaluation     :        0.018 s           0.056 s
          | Total time for scaled ZORA corrections     :        0.000 s           0.000 s
          | Total time for vdW correction              :        9.275 s           9.274 s

          Partial memory accounting:
          | Residual value for overall tracked memory usage across tasks :        4966.230 MB (should be 0.000 MB)
          |
          | Largest tracked array allocation (+KS_eigenvector_complex):
          |   Minimum:       29.491 MB (on task  1)
          |   Maximum:       29.491 MB (on task  1)
          |   Average:       29.491 MB
          |
          | Because the residual tracked memory usage was not zero, the peak value for overall
          | tracked memory usage was not output, as it is probably incorrect.  This is likely due
          | to a missing aims_deallocate statement in the source code, which should be otherwise
          | harmless.
          |
          Note:  These values currently only include a subset of arrays which are explicitly tracked.
          The "true" memory usage will be greater.

          Have a nice day.
------------------------------------------------------------
